 Entering Gaussian System, Link 0=g09
 Initial command:
 /home/software/gaussian//09.d01/l1.exe "/home/tntech.edu/jbthorn42/tmp/tmp.LnA5wbSwvW/Gau-862481.inp" -scrdir="/home/tntech.edu/jbthorn42/tmp/tmp.LnA5wbSwvW/"
 Default is to use a total of  16 processors:
                               16 via shared-memory
                                1 via Linda
 Entering Link 1 = /home/software/gaussian//09.d01/l1.exe PID=    862482.
  
 Copyright (c) 1988,1990,1992,1993,1995,1998,2003,2009,2013,
            Gaussian, Inc.  All Rights Reserved.
  
 This is part of the Gaussian(R) 09 program.  It is based on
 the Gaussian(R) 03 system (copyright 2003, Gaussian, Inc.),
 the Gaussian(R) 98 system (copyright 1998, Gaussian, Inc.),
 the Gaussian(R) 94 system (copyright 1995, Gaussian, Inc.),
 the Gaussian 92(TM) system (copyright 1992, Gaussian, Inc.),
 the Gaussian 90(TM) system (copyright 1990, Gaussian, Inc.),
 the Gaussian 88(TM) system (copyright 1988, Gaussian, Inc.),
 the Gaussian 86(TM) system (copyright 1986, Carnegie Mellon
 University), and the Gaussian 82(TM) system (copyright 1983,
 Carnegie Mellon University). Gaussian is a federally registered
 trademark of Gaussian, Inc.
  
 This software contains proprietary and confidential information,
 including trade secrets, belonging to Gaussian, Inc.
  
 This software is provided under written license and may be
 used, copied, transmitted, or stored only in accord with that
 written license.
  
 The following legend is applicable only to US Government
 contracts under FAR:
  
                    RESTRICTED RIGHTS LEGEND
  
 Use, reproduction and disclosure by the US Government is
 subject to restrictions as set forth in subparagraphs (a)
 and (c) of the Commercial Computer Software - Restricted
 Rights clause in FAR 52.227-19.
  
 Gaussian, Inc.
 340 Quinnipiac St., Bldg. 40, Wallingford CT 06492
  
  
 ---------------------------------------------------------------
 Warning -- This program may not be used in any manner that
 competes with the business of Gaussian, Inc. or will provide
 assistance to any competitor of Gaussian, Inc.  The licensee
 of this program is prohibited from giving any competitor of
 Gaussian, Inc. access to this program.  By using this program,
 the user acknowledges that Gaussian, Inc. is engaged in the
 business of creating and licensing software in the field of
 computational chemistry and represents and warrants to the
 licensee that it is not a competitor of Gaussian, Inc. and that
 it will not use this program in any manner prohibited above.
 ---------------------------------------------------------------
  

 Cite this work as:
 Gaussian 09, Revision D.01,
 M. J. Frisch, G. W. Trucks, H. B. Schlegel, G. E. Scuseria, 
 M. A. Robb, J. R. Cheeseman, G. Scalmani, V. Barone, B. Mennucci, 
 G. A. Petersson, H. Nakatsuji, M. Caricato, X. Li, H. P. Hratchian, 
 A. F. Izmaylov, J. Bloino, G. Zheng, J. L. Sonnenberg, M. Hada, 
 M. Ehara, K. Toyota, R. Fukuda, J. Hasegawa, M. Ishida, T. Nakajima, 
 Y. Honda, O. Kitao, H. Nakai, T. Vreven, J. A. Montgomery, Jr., 
 J. E. Peralta, F. Ogliaro, M. Bearpark, J. J. Heyd, E. Brothers, 
 K. N. Kudin, V. N. Staroverov, T. Keith, R. Kobayashi, J. Normand, 
 K. Raghavachari, A. Rendell, J. C. Burant, S. S. Iyengar, J. Tomasi, 
 M. Cossi, N. Rega, J. M. Millam, M. Klene, J. E. Knox, J. B. Cross, 
 V. Bakken, C. Adamo, J. Jaramillo, R. Gomperts, R. E. Stratmann, 
 O. Yazyev, A. J. Austin, R. Cammi, C. Pomelli, J. W. Ochterski, 
 R. L. Martin, K. Morokuma, V. G. Zakrzewski, G. A. Voth, 
 P. Salvador, J. J. Dannenberg, S. Dapprich, A. D. Daniels, 
 O. Farkas, J. B. Foresman, J. V. Ortiz, J. Cioslowski, 
 and D. J. Fox, Gaussian, Inc., Wallingford CT, 2013.
 
 ******************************************
 Gaussian 09:  ES64L-G09RevD.01 24-Apr-2013
                22-Aug-2022 
 ******************************************
 %chk=albuterolcation.chk
 %nprocshared=16
 Will use up to   16 processors via shared memory.
 %mem=60MW
 ----------------------------------------------------------------------
 #p opt=verytight freq=(raman,savenormalmodes) b3lyp/6-311+g(d,p) nosym
 m guess=save scf=(xqc,tight)
 ----------------------------------------------------------------------
 1/7=1,14=-1,18=20,19=15,26=3,38=1/1,3;
 2/9=110,12=2,15=1,17=6,18=5,40=1/2;
 3/5=4,6=6,7=111,11=2,16=1,25=1,30=1,71=1,74=-5/1,2,3;
 4//1;
 5/5=2,8=3,13=1,32=2,38=5/2,8;
 6/7=2,8=2,9=2,10=2,28=1/1;
 7/30=1,92=1/1,2,3,16;
 1/7=1,14=-1,18=20,19=15,26=3/3(2);
 2/9=110,15=1/2;
 99//99;
 2/9=110,15=1/2;
 3/5=4,6=6,7=111,11=2,16=1,25=1,30=1,71=1,74=-5/1,2,3;
 4/5=5,16=3,69=1/1;
 5/5=2,8=3,13=1,32=2,38=5/2,8;
 7/30=1,92=1/1,2,3,16;
 1/7=1,14=-1,18=20,19=15,26=3/3(-5);
 2/9=110,15=1/2;
 6/7=2,8=2,9=2,10=2,19=2,28=1/1;
 99/9=1/99;
 Leave Link    1 at Mon Aug 22 00:58:15 2022, MaxMem=    62914560 cpu:         0.8
 (Enter /home/software/gaussian//09.d01/l101.exe)
 ----------------
 Albuterol Cation
 ----------------
 Symbolic Z-matrix:
 Charge =  1 Multiplicity = 1
 C                     2.42887  -0.85687  -0.22257 
 H                     3.29646  -1.46892   0.05003 
 H                     2.6529   -0.33339  -1.15982 
 H                     1.57778  -1.52479  -0.39414 
 C                     2.11353   0.16914   0.89724 
 C                     3.33146   1.09601   1.10196 
 H                     3.56164   1.62943   0.17097 
 H                     4.21349   0.51783   1.39746 
 H                     3.09896   1.83238   1.87698 
 C                     1.80751  -0.56621   2.21857 
 H                     2.6869   -1.12987   2.54873 
 H                     0.97615  -1.26941   2.09817 
 H                     1.53829   0.16827   2.98387 
 N                     0.97055   1.06914   0.56898 
 H                     1.22844   1.60685  -0.23375 
 C                    -0.33995   0.44839   0.29048 
 H                    -0.72098  -0.04749   1.18732 
 H                    -0.34154  -0.28061  -0.53663 
 C                    -1.31336   1.57244  -0.09614 
 H                    -1.34389   2.29464   0.73022 
 C                    -2.69609   1.0342   -0.4017 
 C                    -3.63424   0.81777   0.61502 
 H                    -3.4216    1.0642    1.6475 
 C                    -4.88181   0.27921   0.32471 
 C                    -5.2069   -0.04882  -0.99814 
 C                    -4.28064   0.16855  -2.01675 
 H                    -4.53303  -0.08111  -3.04293 
 C                    -3.02897   0.70787  -1.71751 
 H                    -2.29503   0.89084  -2.49144 
 O                    -6.47909  -0.57888  -1.19347 
 H                    -6.62156  -0.78248  -2.15326 
 C                    -5.91268   0.03857   1.40144 
 H                    -6.17376  -1.03097   1.40925 
 H                    -6.8294    0.59201   1.14588 
 O                    -5.33923   0.47576   2.66787 
 H                    -6.00692   0.30195   3.38103 
 O                    -0.69585   2.16913  -1.29422 
 H                    -1.19294   3.00696  -1.49717 
 H                     0.85088   1.6998    1.33575 
 
 NAtoms=     39 NQM=       39 NQMF=       0 NMMI=      0 NMMIF=      0
                NMic=       0 NMicF=      0.
                    Isotopes and Nuclear Properties:
 (Nuclear quadrupole moments (NQMom) in fm**2, nuclear magnetic moments (NMagM)
  in nuclear magnetons)

  Atom         1           2           3           4           5           6           7           8           9          10
 IAtWgt=          12           1           1           1          12          12           1           1           1          12
 AtmWgt=  12.0000000   1.0078250   1.0078250   1.0078250  12.0000000  12.0000000   1.0078250   1.0078250   1.0078250  12.0000000
 NucSpn=           0           1           1           1           0           0           1           1           1           0
 AtZEff=   0.0000000   0.0000000   0.0000000   0.0000000   0.0000000   0.0000000   0.0000000   0.0000000   0.0000000   0.0000000
 NQMom=    0.0000000   0.0000000   0.0000000   0.0000000   0.0000000   0.0000000   0.0000000   0.0000000   0.0000000   0.0000000
 NMagM=    0.0000000   2.7928460   2.7928460   2.7928460   0.0000000   0.0000000   2.7928460   2.7928460   2.7928460   0.0000000
 AtZNuc=   6.0000000   1.0000000   1.0000000   1.0000000   6.0000000   6.0000000   1.0000000   1.0000000   1.0000000   6.0000000

  Atom        11          12          13          14          15          16          17          18          19          20
 IAtWgt=           1           1           1          14           1          12           1           1          12           1
 AtmWgt=   1.0078250   1.0078250   1.0078250  14.0030740   1.0078250  12.0000000   1.0078250   1.0078250  12.0000000   1.0078250
 NucSpn=           1           1           1           2           1           0           1           1           0           1
 AtZEff=   0.0000000   0.0000000   0.0000000   0.0000000   0.0000000   0.0000000   0.0000000   0.0000000   0.0000000   0.0000000
 NQMom=    0.0000000   0.0000000   0.0000000   2.0440000   0.0000000   0.0000000   0.0000000   0.0000000   0.0000000   0.0000000
 NMagM=    2.7928460   2.7928460   2.7928460   0.4037610   2.7928460   0.0000000   2.7928460   2.7928460   0.0000000   2.7928460
 AtZNuc=   1.0000000   1.0000000   1.0000000   7.0000000   1.0000000   6.0000000   1.0000000   1.0000000   6.0000000   1.0000000

  Atom        21          22          23          24          25          26          27          28          29          30
 IAtWgt=          12          12           1          12          12          12           1          12           1          16
 AtmWgt=  12.0000000  12.0000000   1.0078250  12.0000000  12.0000000  12.0000000   1.0078250  12.0000000   1.0078250  15.9949146
 NucSpn=           0           0           1           0           0           0           1           0           1           0
 AtZEff=   0.0000000   0.0000000   0.0000000   0.0000000   0.0000000   0.0000000   0.0000000   0.0000000   0.0000000   0.0000000
 NQMom=    0.0000000   0.0000000   0.0000000   0.0000000   0.0000000   0.0000000   0.0000000   0.0000000   0.0000000   0.0000000
 NMagM=    0.0000000   0.0000000   2.7928460   0.0000000   0.0000000   0.0000000   2.7928460   0.0000000   2.7928460   0.0000000
 AtZNuc=   6.0000000   6.0000000   1.0000000   6.0000000   6.0000000   6.0000000   1.0000000   6.0000000   1.0000000   8.0000000

  Atom        31          32          33          34          35          36          37          38          39
 IAtWgt=           1          12           1           1          16           1          16           1           1
 AtmWgt=   1.0078250  12.0000000   1.0078250   1.0078250  15.9949146   1.0078250  15.9949146   1.0078250   1.0078250
 NucSpn=           1           0           1           1           0           1           0           1           1
 AtZEff=   0.0000000   0.0000000   0.0000000   0.0000000   0.0000000   0.0000000   0.0000000   0.0000000   0.0000000
 NQMom=    0.0000000   0.0000000   0.0000000   0.0000000   0.0000000   0.0000000   0.0000000   0.0000000   0.0000000
 NMagM=    2.7928460   0.0000000   2.7928460   2.7928460   0.0000000   2.7928460   0.0000000   2.7928460   2.7928460
 AtZNuc=   1.0000000   6.0000000   1.0000000   1.0000000   8.0000000   1.0000000   8.0000000   1.0000000   1.0000000
 Leave Link  101 at Mon Aug 22 00:58:16 2022, MaxMem=    62914560 cpu:         0.5
 (Enter /home/software/gaussian//09.d01/l103.exe)

 GradGradGradGradGradGradGradGradGradGradGradGradGradGradGradGradGradGrad
 Berny optimization.
 Initialization pass.
                           ----------------------------
                           !    Initial Parameters    !
                           ! (Angstroms and Degrees)  !
 --------------------------                            --------------------------
 ! Name  Definition              Value          Derivative Info.                !
 --------------------------------------------------------------------------------
 ! R1    R(1,2)                  1.0962         estimate D2E/DX2                !
 ! R2    R(1,3)                  1.0967         estimate D2E/DX2                !
 ! R3    R(1,4)                  1.0954         estimate D2E/DX2                !
 ! R4    R(1,5)                  1.5512         estimate D2E/DX2                !
 ! R5    R(5,6)                  1.5441         estimate D2E/DX2                !
 ! R6    R(5,10)                 1.5428         estimate D2E/DX2                !
 ! R7    R(5,14)                 1.4914         estimate D2E/DX2                !
 ! R8    R(6,7)                  1.0974         estimate D2E/DX2                !
 ! R9    R(6,8)                  1.0953         estimate D2E/DX2                !
 ! R10   R(6,9)                  1.0941         estimate D2E/DX2                !
 ! R11   R(10,11)                1.0955         estimate D2E/DX2                !
 ! R12   R(10,12)                1.0955         estimate D2E/DX2                !
 ! R13   R(10,13)                1.0944         estimate D2E/DX2                !
 ! R14   R(14,15)                1.0            estimate D2E/DX2                !
 ! R15   R(14,16)                1.4766         estimate D2E/DX2                !
 ! R16   R(14,39)                1.0            estimate D2E/DX2                !
 ! R17   R(16,17)                1.0933         estimate D2E/DX2                !
 ! R18   R(16,18)                1.1025         estimate D2E/DX2                !
 ! R19   R(16,19)                1.5364         estimate D2E/DX2                !
 ! R20   R(19,20)                1.0979         estimate D2E/DX2                !
 ! R21   R(19,21)                1.5149         estimate D2E/DX2                !
 ! R22   R(19,37)                1.474          estimate D2E/DX2                !
 ! R23   R(21,22)                1.4003         estimate D2E/DX2                !
 ! R24   R(21,28)                1.3959         estimate D2E/DX2                !
 ! R25   R(22,23)                1.0826         estimate D2E/DX2                !
 ! R26   R(22,24)                1.3895         estimate D2E/DX2                !
 ! R27   R(24,25)                1.4012         estimate D2E/DX2                !
 ! R28   R(24,32)                1.5099         estimate D2E/DX2                !
 ! R29   R(25,26)                1.3938         estimate D2E/DX2                !
 ! R30   R(25,30)                1.392          estimate D2E/DX2                !
 ! R31   R(26,27)                1.0859         estimate D2E/DX2                !
 ! R32   R(26,28)                1.3954         estimate D2E/DX2                !
 ! R33   R(28,29)                1.0822         estimate D2E/DX2                !
 ! R34   R(30,31)                0.9914         estimate D2E/DX2                !
 ! R35   R(32,33)                1.101          estimate D2E/DX2                !
 ! R36   R(32,34)                1.1009         estimate D2E/DX2                !
 ! R37   R(32,35)                1.4573         estimate D2E/DX2                !
 ! R38   R(35,36)                0.9923         estimate D2E/DX2                !
 ! R39   R(37,38)                0.9951         estimate D2E/DX2                !
 ! A1    A(2,1,3)              108.5041         estimate D2E/DX2                !
 ! A2    A(2,1,4)              108.2666         estimate D2E/DX2                !
 ! A3    A(2,1,5)              110.5293         estimate D2E/DX2                !
 ! A4    A(3,1,4)              108.4163         estimate D2E/DX2                !
 ! A5    A(3,1,5)              110.0458         estimate D2E/DX2                !
 ! A6    A(4,1,5)              111.0041         estimate D2E/DX2                !
 ! A7    A(1,5,6)              109.4145         estimate D2E/DX2                !
 ! A8    A(1,5,10)             110.0802         estimate D2E/DX2                !
 ! A9    A(1,5,14)             113.3327         estimate D2E/DX2                !
 ! A10   A(6,5,10)             109.2082         estimate D2E/DX2                !
 ! A11   A(6,5,14)             105.75           estimate D2E/DX2                !
 ! A12   A(10,5,14)            108.9124         estimate D2E/DX2                !
 ! A13   A(5,6,7)              110.1657         estimate D2E/DX2                !
 ! A14   A(5,6,8)              110.7382         estimate D2E/DX2                !
 ! A15   A(5,6,9)              109.2878         estimate D2E/DX2                !
 ! A16   A(7,6,8)              108.4557         estimate D2E/DX2                !
 ! A17   A(7,6,9)              108.565          estimate D2E/DX2                !
 ! A18   A(8,6,9)              109.5919         estimate D2E/DX2                !
 ! A19   A(5,10,11)            110.1285         estimate D2E/DX2                !
 ! A20   A(5,10,12)            111.2442         estimate D2E/DX2                !
 ! A21   A(5,10,13)            109.1366         estimate D2E/DX2                !
 ! A22   A(11,10,12)           108.1823         estimate D2E/DX2                !
 ! A23   A(11,10,13)           109.3935         estimate D2E/DX2                !
 ! A24   A(12,10,13)           108.7221         estimate D2E/DX2                !
 ! A25   A(5,14,15)            107.6699         estimate D2E/DX2                !
 ! A26   A(5,14,16)            117.9052         estimate D2E/DX2                !
 ! A27   A(5,14,39)            107.6699         estimate D2E/DX2                !
 ! A28   A(15,14,16)           107.6699         estimate D2E/DX2                !
 ! A29   A(15,14,39)           107.8946         estimate D2E/DX2                !
 ! A30   A(16,14,39)           107.6699         estimate D2E/DX2                !
 ! A31   A(14,16,17)           110.1977         estimate D2E/DX2                !
 ! A32   A(14,16,18)           114.8818         estimate D2E/DX2                !
 ! A33   A(14,16,19)           107.5896         estimate D2E/DX2                !
 ! A34   A(17,16,18)           108.3592         estimate D2E/DX2                !
 ! A35   A(17,16,19)           108.5082         estimate D2E/DX2                !
 ! A36   A(18,16,19)           107.1009         estimate D2E/DX2                !
 ! A37   A(16,19,20)           108.0281         estimate D2E/DX2                !
 ! A38   A(16,19,21)           111.6602         estimate D2E/DX2                !
 ! A39   A(16,19,37)           103.608          estimate D2E/DX2                !
 ! A40   A(20,19,21)           111.1089         estimate D2E/DX2                !
 ! A41   A(20,19,37)           110.9245         estimate D2E/DX2                !
 ! A42   A(21,19,37)           111.2382         estimate D2E/DX2                !
 ! A43   A(19,21,22)           121.331          estimate D2E/DX2                !
 ! A44   A(19,21,28)           119.3957         estimate D2E/DX2                !
 ! A45   A(22,21,28)           119.243          estimate D2E/DX2                !
 ! A46   A(21,22,23)           121.7165         estimate D2E/DX2                !
 ! A47   A(21,22,24)           120.6472         estimate D2E/DX2                !
 ! A48   A(23,22,24)           117.6357         estimate D2E/DX2                !
 ! A49   A(22,24,25)           119.7559         estimate D2E/DX2                !
 ! A50   A(22,24,32)           121.7193         estimate D2E/DX2                !
 ! A51   A(25,24,32)           118.5244         estimate D2E/DX2                !
 ! A52   A(24,25,26)           119.9511         estimate D2E/DX2                !
 ! A53   A(24,25,30)           115.7015         estimate D2E/DX2                !
 ! A54   A(26,25,30)           124.3466         estimate D2E/DX2                !
 ! A55   A(25,26,27)           120.0208         estimate D2E/DX2                !
 ! A56   A(25,26,28)           119.9775         estimate D2E/DX2                !
 ! A57   A(27,26,28)           120.0017         estimate D2E/DX2                !
 ! A58   A(21,28,26)           120.4244         estimate D2E/DX2                !
 ! A59   A(21,28,29)           118.219          estimate D2E/DX2                !
 ! A60   A(26,28,29)           121.3554         estimate D2E/DX2                !
 ! A61   A(25,30,31)           110.2047         estimate D2E/DX2                !
 ! A62   A(24,32,33)           108.7702         estimate D2E/DX2                !
 ! A63   A(24,32,34)           108.835          estimate D2E/DX2                !
 ! A64   A(24,32,35)           107.6516         estimate D2E/DX2                !
 ! A65   A(33,32,34)           107.0101         estimate D2E/DX2                !
 ! A66   A(33,32,35)           112.246          estimate D2E/DX2                !
 ! A67   A(34,32,35)           112.2455         estimate D2E/DX2                !
 ! A68   A(32,35,36)           107.8935         estimate D2E/DX2                !
 ! A69   A(19,37,38)           107.2972         estimate D2E/DX2                !
 ! D1    D(2,1,5,6)             60.2221         estimate D2E/DX2                !
 ! D2    D(2,1,5,10)           -59.7945         estimate D2E/DX2                !
 ! D3    D(2,1,5,14)           177.9622         estimate D2E/DX2                !
 ! D4    D(3,1,5,6)            -59.605          estimate D2E/DX2                !
 ! D5    D(3,1,5,10)          -179.6216         estimate D2E/DX2                !
 ! D6    D(3,1,5,14)            58.1351         estimate D2E/DX2                !
 ! D7    D(4,1,5,6)           -179.6262         estimate D2E/DX2                !
 ! D8    D(4,1,5,10)            60.3572         estimate D2E/DX2                !
 ! D9    D(4,1,5,14)           -61.8861         estimate D2E/DX2                !
 ! D10   D(1,5,6,7)             59.5881         estimate D2E/DX2                !
 ! D11   D(1,5,6,8)            -60.3895         estimate D2E/DX2                !
 ! D12   D(1,5,6,9)            178.7883         estimate D2E/DX2                !
 ! D13   D(10,5,6,7)          -179.8623         estimate D2E/DX2                !
 ! D14   D(10,5,6,8)            60.1601         estimate D2E/DX2                !
 ! D15   D(10,5,6,9)           -60.6621         estimate D2E/DX2                !
 ! D16   D(14,5,6,7)           -62.8053         estimate D2E/DX2                !
 ! D17   D(14,5,6,8)           177.2171         estimate D2E/DX2                !
 ! D18   D(14,5,6,9)            56.3949         estimate D2E/DX2                !
 ! D19   D(1,5,10,11)           62.7256         estimate D2E/DX2                !
 ! D20   D(1,5,10,12)          -57.212          estimate D2E/DX2                !
 ! D21   D(1,5,10,13)         -177.1739         estimate D2E/DX2                !
 ! D22   D(6,5,10,11)          -57.4159         estimate D2E/DX2                !
 ! D23   D(6,5,10,12)         -177.3534         estimate D2E/DX2                !
 ! D24   D(6,5,10,13)           62.6847         estimate D2E/DX2                !
 ! D25   D(14,5,10,11)        -172.4534         estimate D2E/DX2                !
 ! D26   D(14,5,10,12)          67.609          estimate D2E/DX2                !
 ! D27   D(14,5,10,13)         -52.3528         estimate D2E/DX2                !
 ! D28   D(1,5,14,15)          -63.0524         estimate D2E/DX2                !
 ! D29   D(1,5,14,16)           58.8979         estimate D2E/DX2                !
 ! D30   D(1,5,14,39)         -179.1518         estimate D2E/DX2                !
 ! D31   D(6,5,14,15)           56.8007         estimate D2E/DX2                !
 ! D32   D(6,5,14,16)          178.751          estimate D2E/DX2                !
 ! D33   D(6,5,14,39)          -59.2987         estimate D2E/DX2                !
 ! D34   D(10,5,14,15)         174.057          estimate D2E/DX2                !
 ! D35   D(10,5,14,16)         -63.9928         estimate D2E/DX2                !
 ! D36   D(10,5,14,39)          57.9575         estimate D2E/DX2                !
 ! D37   D(5,14,16,17)          65.1343         estimate D2E/DX2                !
 ! D38   D(5,14,16,18)         -57.5885         estimate D2E/DX2                !
 ! D39   D(5,14,16,19)        -176.737          estimate D2E/DX2                !
 ! D40   D(15,14,16,17)       -172.9154         estimate D2E/DX2                !
 ! D41   D(15,14,16,18)         64.3618         estimate D2E/DX2                !
 ! D42   D(15,14,16,19)        -54.7867         estimate D2E/DX2                !
 ! D43   D(39,14,16,17)        -56.816          estimate D2E/DX2                !
 ! D44   D(39,14,16,18)       -179.5387         estimate D2E/DX2                !
 ! D45   D(39,14,16,19)         61.3128         estimate D2E/DX2                !
 ! D46   D(14,16,19,20)        -57.477          estimate D2E/DX2                !
 ! D47   D(14,16,19,21)       -179.9407         estimate D2E/DX2                !
 ! D48   D(14,16,19,37)         60.2468         estimate D2E/DX2                !
 ! D49   D(17,16,19,20)         61.737          estimate D2E/DX2                !
 ! D50   D(17,16,19,21)        -60.7267         estimate D2E/DX2                !
 ! D51   D(17,16,19,37)        179.4608         estimate D2E/DX2                !
 ! D52   D(18,16,19,20)        178.5132         estimate D2E/DX2                !
 ! D53   D(18,16,19,21)         56.0495         estimate D2E/DX2                !
 ! D54   D(18,16,19,37)        -63.763          estimate D2E/DX2                !
 ! D55   D(16,19,21,22)         85.4305         estimate D2E/DX2                !
 ! D56   D(16,19,21,28)        -92.5539         estimate D2E/DX2                !
 ! D57   D(20,19,21,22)        -35.2509         estimate D2E/DX2                !
 ! D58   D(20,19,21,28)        146.7647         estimate D2E/DX2                !
 ! D59   D(37,19,21,22)       -159.359          estimate D2E/DX2                !
 ! D60   D(37,19,21,28)         22.6567         estimate D2E/DX2                !
 ! D61   D(16,19,37,38)       -169.9873         estimate D2E/DX2                !
 ! D62   D(20,19,37,38)        -54.2999         estimate D2E/DX2                !
 ! D63   D(21,19,37,38)         69.9125         estimate D2E/DX2                !
 ! D64   D(19,21,22,23)          2.5523         estimate D2E/DX2                !
 ! D65   D(19,21,22,24)       -177.7091         estimate D2E/DX2                !
 ! D66   D(28,21,22,23)       -179.4604         estimate D2E/DX2                !
 ! D67   D(28,21,22,24)          0.2783         estimate D2E/DX2                !
 ! D68   D(19,21,28,26)        177.8457         estimate D2E/DX2                !
 ! D69   D(19,21,28,29)         -2.5519         estimate D2E/DX2                !
 ! D70   D(22,21,28,26)         -0.1811         estimate D2E/DX2                !
 ! D71   D(22,21,28,29)        179.4213         estimate D2E/DX2                !
 ! D72   D(21,22,24,25)         -0.1178         estimate D2E/DX2                !
 ! D73   D(21,22,24,32)       -179.8617         estimate D2E/DX2                !
 ! D74   D(23,22,24,25)        179.6312         estimate D2E/DX2                !
 ! D75   D(23,22,24,32)         -0.1127         estimate D2E/DX2                !
 ! D76   D(22,24,25,26)         -0.1417         estimate D2E/DX2                !
 ! D77   D(22,24,25,30)       -179.833          estimate D2E/DX2                !
 ! D78   D(32,24,25,26)        179.6104         estimate D2E/DX2                !
 ! D79   D(32,24,25,30)         -0.0809         estimate D2E/DX2                !
 ! D80   D(22,24,32,33)       -121.3304         estimate D2E/DX2                !
 ! D81   D(22,24,32,34)        122.4139         estimate D2E/DX2                !
 ! D82   D(22,24,32,35)          0.5231         estimate D2E/DX2                !
 ! D83   D(25,24,32,33)         58.9226         estimate D2E/DX2                !
 ! D84   D(25,24,32,34)        -57.3331         estimate D2E/DX2                !
 ! D85   D(25,24,32,35)       -179.2239         estimate D2E/DX2                !
 ! D86   D(24,25,26,27)       -179.7264         estimate D2E/DX2                !
 ! D87   D(24,25,26,28)          0.2378         estimate D2E/DX2                !
 ! D88   D(30,25,26,27)         -0.0633         estimate D2E/DX2                !
 ! D89   D(30,25,26,28)        179.9009         estimate D2E/DX2                !
 ! D90   D(24,25,30,31)       -179.8667         estimate D2E/DX2                !
 ! D91   D(26,25,30,31)          0.4573         estimate D2E/DX2                !
 ! D92   D(25,26,28,21)         -0.0754         estimate D2E/DX2                !
 ! D93   D(25,26,28,29)       -179.6651         estimate D2E/DX2                !
 ! D94   D(27,26,28,21)        179.8888         estimate D2E/DX2                !
 ! D95   D(27,26,28,29)          0.2991         estimate D2E/DX2                !
 ! D96   D(24,32,35,36)       -178.8583         estimate D2E/DX2                !
 ! D97   D(33,32,35,36)        -59.1896         estimate D2E/DX2                !
 ! D98   D(34,32,35,36)         61.3933         estimate D2E/DX2                !
 --------------------------------------------------------------------------------
 Trust Radius=3.00D-01 FncErr=1.00D-07 GrdErr=1.00D-06
 Number of steps in this run=    216 maximum allowed number of steps=    234.
 GradGradGradGradGradGradGradGradGradGradGradGradGradGradGradGradGradGrad

 Leave Link  103 at Mon Aug 22 00:58:16 2022, MaxMem=    62914560 cpu:         0.1
 (Enter /home/software/gaussian//09.d01/l202.exe)
                          Input orientation:                          
 ---------------------------------------------------------------------
 Center     Atomic      Atomic             Coordinates (Angstroms)
 Number     Number       Type             X           Y           Z
 ---------------------------------------------------------------------
      1          6           0        2.428873   -0.856869   -0.222573
      2          1           0        3.296461   -1.468918    0.050026
      3          1           0        2.652899   -0.333389   -1.159820
      4          1           0        1.577780   -1.524790   -0.394142
      5          6           0        2.113534    0.169142    0.897237
      6          6           0        3.331456    1.096005    1.101959
      7          1           0        3.561635    1.629428    0.170972
      8          1           0        4.213494    0.517829    1.397463
      9          1           0        3.098959    1.832379    1.876975
     10          6           0        1.807506   -0.566213    2.218570
     11          1           0        2.686903   -1.129873    2.548726
     12          1           0        0.976151   -1.269410    2.098168
     13          1           0        1.538289    0.168266    2.983865
     14          7           0        0.970552    1.069144    0.568976
     15          1           0        1.228441    1.606849   -0.233748
     16          6           0       -0.339949    0.448391    0.290481
     17          1           0       -0.720977   -0.047490    1.187317
     18          1           0       -0.341544   -0.280608   -0.536631
     19          6           0       -1.313356    1.572441   -0.096138
     20          1           0       -1.343892    2.294644    0.730216
     21          6           0       -2.696087    1.034203   -0.401703
     22          6           0       -3.634238    0.817767    0.615023
     23          1           0       -3.421595    1.064198    1.647498
     24          6           0       -4.881814    0.279206    0.324713
     25          6           0       -5.206903   -0.048823   -0.998142
     26          6           0       -4.280638    0.168550   -2.016749
     27          1           0       -4.533026   -0.081114   -3.042931
     28          6           0       -3.028975    0.707870   -1.717511
     29          1           0       -2.295027    0.890838   -2.491437
     30          8           0       -6.479093   -0.578882   -1.193470
     31          1           0       -6.621557   -0.782483   -2.153258
     32          6           0       -5.912677    0.038569    1.401442
     33          1           0       -6.173764   -1.030970    1.409245
     34          1           0       -6.829396    0.592010    1.145880
     35          8           0       -5.339234    0.475761    2.667865
     36          1           0       -6.006916    0.301951    3.381030
     37          8           0       -0.695853    2.169130   -1.294218
     38          1           0       -1.192943    3.006960   -1.497174
     39          1           0        0.850876    1.699801    1.335754
 ---------------------------------------------------------------------
                    Distance matrix (angstroms):
                    1          2          3          4          5
     1  C    0.000000
     2  H    1.096186   0.000000
     3  H    1.096654   1.779698   0.000000
     4  H    1.095406   1.776027   1.778083   0.000000
     5  C    1.551165   2.190964   2.185163   2.196383   0.000000
     6  C    2.526412   2.772475   2.760299   3.490310   1.544124
     7  H    2.760380   3.112024   2.539579   3.768836   2.181030
     8  H    2.774740   2.569766   3.114438   3.785384   2.186696
     9  H    3.476949   3.778268   3.756547   4.329266   2.167327
    10  C    2.535697   2.781087   3.490332   2.792473   1.542829
    11  H    2.796642   2.594227   3.793265   3.169635   2.177983
    12  H    2.768832   3.101375   3.781812   2.576584   2.192101
    13  H    3.482138   3.791959   4.320201   3.778747   2.164469
    14  N    2.542199   3.481511   2.790363   2.832811   1.491364
    15  H    2.740633   3.717200   2.578995   3.155143   2.032122
    16  C    3.103756   4.117933   3.416386   2.835461   2.542776
    17  H    3.544635   4.410634   4.119931   3.157168   2.857539
    18  H    2.847090   3.871864   3.059059   2.291745   2.878482
    19  C    4.463386   5.524639   4.527117   4.247389   3.834008
    20  H    5.007354   6.013313   5.143261   4.938464   4.061951
    21  C    5.465662   6.510016   5.572854   4.981410   5.056484
    22  C    6.345651   7.320023   6.633500   5.802682   5.791135
    23  H    6.435498   7.355329   6.836210   5.988731   5.657002
    24  C    7.418648   8.367531   7.703961   6.745184   7.019601
    25  C    7.717482   8.684614   7.866613   6.969592   7.564970
    26  C    7.020548   8.022798   7.004299   6.310413   7.026859
    27  H    7.551440   8.531896   7.432851   6.814854   7.730738
    28  C    5.871231   6.919085   5.803355   5.287558   5.794181
    29  H    5.524261   6.579682   5.268198   5.023200   5.607082
    30  O    8.965031   9.894438   9.135353   8.151495   8.874899
    31  H    9.254370  10.182963   9.338316   8.418708   9.301232
    32  C    8.545214   9.429054   8.948045   7.859718   8.043092
    33  H    8.757768   9.577288   9.219365   7.973863   8.389382
    34  H    9.470346  10.391405   9.802374   8.805289   8.956374
    35  O    8.394881   9.230931   8.898319   7.824524   7.666348
    36  H    9.246153  10.039143   9.798743   8.666979   8.492854
    37  O    4.479844   5.566054   4.182679   4.429965   4.085962
    38  H    5.447140   6.525493   5.105119   5.424974   4.971841
    39  H    3.384527   4.204137   3.689043   3.730807   2.032122
                    6          7          8          9         10
     6  C    0.000000
     7  H    1.097387   0.000000
     8  H    1.095263   1.779003   0.000000
     9  H    1.094053   1.779243   1.788900   0.000000
    10  C    2.516389   3.477135   2.763719   2.745502   0.000000
    11  H    2.731870   3.746013   2.524046   3.065286   1.095470
    12  H    3.483544   4.336136   3.763722   3.765147   1.095506
    13  H    2.760021   3.760491   3.129790   2.535778   1.094355
    14  N    2.420467   2.680678   3.392199   2.612184   2.469017
    15  H    2.543177   2.368143   3.571744   2.829285   3.327369
    16  C    3.815379   4.078172   4.686584   4.032180   3.059168
    17  H    4.211541   4.710178   4.971192   4.312939   2.779529
    18  H    4.250996   4.402698   5.012643   4.703963   3.505869
    19  C    4.820447   4.882636   5.821436   4.840379   4.435256
    20  H    4.840848   4.981913   5.872549   4.611688   4.508992
    21  C    6.212575   6.311999   7.158628   6.277899   5.450643
    22  C    6.988234   7.255106   7.892343   6.925164   5.839464
    23  H    6.775125   7.159966   7.658696   6.569656   5.507074
    24  C    8.290300   8.552109   9.161461   8.277355   7.003458
    25  C    8.867053   9.003922   9.736729   8.988468   7.734136
    26  C    8.278314   8.271731   9.161284   8.508106   7.452738
    27  H    8.967486   8.875735   9.827382   9.279770   8.253548
    28  C    6.968152   6.917498   7.886224   7.192804   6.364556
    29  H    6.679214   6.475680   7.591016   7.004613   6.413887
    30  O   10.213771  10.370851  11.056542  10.343157   8.961579
    31  H   10.638967  10.719923  11.475921  10.842911   9.497829
    32  C    9.309235   9.685426  10.137507   9.200732   7.786828
    33  H    9.745135  10.168040  10.502097   9.716014   8.035650
    34  H   10.173439  10.488098  11.046005  10.032211   8.779990
    35  O    8.832759   9.316163   9.636924   8.583066   7.236261
    36  H    9.645200  10.179579  10.413353   9.355285   7.947969
    37  O    4.807544   4.534784   5.837262   4.956860   5.107699
    38  H    5.556746   5.223631   6.618478   5.584348   5.964647
    39  H    2.563690   2.951251   3.564837   2.316112   2.613298
                   11         12         13         14         15
    11  H    0.000000
    12  H    1.774583   0.000000
    13  H    1.787128   1.779711   0.000000
    14  N    3.420665   2.794154   2.639241   0.000000
    15  H    4.166404   3.711381   3.538158   1.000000   0.000000
    16  C    4.092972   2.819697   3.295537   1.476586   2.019081
    17  H    3.826047   2.281004   2.894550   2.119077   2.925149
    18  H    4.405924   3.107445   4.016112   2.183070   2.473678
    19  C    5.504533   4.258279   4.426060   2.431444   2.545752
    20  H    5.592996   4.467256   4.231712   2.623833   2.831817
    21  C    6.508828   5.004130   5.490160   3.793110   3.969641
    22  C    6.891250   5.273681   5.726107   4.611876   4.998871
    23  H    6.552855   4.998900   5.214309   4.522631   5.045433
    24  C    8.013564   6.313407   6.949901   5.910487   6.277717
    25  C    8.721302   7.021903   7.835887   6.470445   6.688737
    26  C    8.430664   6.828917   7.672422   5.922165   5.966385
    27  H    9.192056   7.628498   8.558348   6.682689   6.628365
    28  C    7.365415   5.874528   6.576778   4.621121   4.597315
    29  H    7.369270   6.035872   6.722749   4.479054   4.245545
    30  O    9.915801   8.178776   9.071206   7.830672   8.068740
    31  H   10.434403   8.719913   9.689017   8.275216   8.427093
    32  C    8.754102   7.046431   7.618253   7.009560   7.491923
    33  H    8.934183   7.186985   7.961995   7.493850   8.028085
    34  H    9.772042   8.080736   8.577640   7.835794   8.237840
    35  O    8.186033   6.576797   6.891642   6.676139   7.268636
    36  H    8.850160   7.271735   7.556833   7.561831   8.192666
    37  O    6.090540   5.111501   5.224638   2.731001   2.267964
    38  H    6.966771   5.993229   5.966366   3.564382   3.069146
    39  H    3.584599   3.068091   2.352532   1.000000   1.616952
                   16         17         18         19         20
    16  C    0.000000
    17  H    1.093341   0.000000
    18  H    1.102523   1.780536   0.000000
    19  C    1.536387   2.149964   2.138280   0.000000
    20  H    2.147072   2.466284   3.039988   1.097894   0.000000
    21  C    2.524615   2.756103   2.700149   1.514931   2.167575
    22  C    3.330782   3.092455   3.657126   2.542002   2.727658
    23  H    3.423048   2.956511   4.008196   2.782669   2.583071
    24  C    4.545144   4.261852   4.655036   3.818830   4.091860
    25  C    5.059151   4.989966   4.892692   4.312982   4.837552
    26  C    4.575003   4.794153   4.231897   3.803212   4.548689
    27  H    5.382741   5.694545   4.887725   4.667345   5.481919
    28  C    3.366040   3.786218   3.097394   2.513898   3.368787
    29  H    3.428871   4.109906   3.001608   2.676886   3.640656
    30  O    6.398944   6.253513   6.179799   5.702383   6.190962
    31  H    6.851679   6.820301   6.504147   6.160715   6.755507
    32  C    5.697147   5.196826   5.907243   5.074373   5.139476
    33  H    6.121563   5.545212   6.193889   5.715548   5.903258
    34  H    6.547156   6.141943   6.759033   5.738515   5.758688
    35  O    5.535843   4.877921   5.984797   5.005009   4.798497
    36  H    6.456582   5.733728   6.912589   5.977821   5.722013
    37  O    2.366196   3.327469   2.588569   1.474023   2.129329
    38  H    3.235674   4.093765   3.529253   2.008792   2.343383
    39  H    2.019081   2.354949   2.974847   2.598160   2.353194
                   21         22         23         24         25
    21  C    0.000000
    22  C    1.400251   0.000000
    23  H    2.174048   1.082566   0.000000
    24  C    2.423861   1.389523   2.120899   0.000000
    25  C    2.798729   2.413826   3.380170   1.401154   0.000000
    26  C    2.422505   2.786672   3.868701   2.419938   1.393836
    27  H    3.405050   3.872523   4.954507   3.404777   2.153210
    28  C    1.395944   2.412288   3.406524   2.790599   2.415253
    29  H    2.132696   3.383625   4.293017   3.872501   3.404690
    30  O    4.188087   3.648901   4.485433   2.364846   1.391971
    31  H    4.666648   4.375872   5.300541   3.208462   1.968196
    32  C    3.819564   2.533158   2.705171   1.509944   2.502750
    33  H    4.431558   3.240032   3.467121   2.135862   2.773976
    34  H    4.435627   3.246815   3.476736   2.136642   2.764052
    35  O    4.089050   2.690379   2.250499   2.395460   3.705713
    36  H    5.080044   3.680552   3.204690   3.256907   4.465446
    37  O    2.466897   3.755728   4.159836   4.869807   5.035529
    38  H    2.711322   3.900495   4.316269   4.936363   5.069390
    39  H    4.005337   4.627493   4.330726   5.991997   6.723202
                   26         27         28         29         30
    26  C    0.000000
    27  H    1.085855   0.000000
    28  C    1.395374   2.154392   0.000000
    29  H    2.165567   2.501495   1.082182   0.000000
    30  O    2.463665   2.730468   3.719363   4.620736   0.000000
    31  H    2.530415   2.376005   3.913780   4.651154   0.991434
    32  C    3.790050   4.655128   4.300182   5.382217   2.726837
    33  H    4.093923   4.839020   4.763388   5.826943   2.659273
    34  H    4.083835   4.824163   4.759793   5.820642   2.639367
    35  O    4.812547   5.794245   4.962126   6.004822   4.161906
    36  H    5.668673   6.601997   5.918448   6.972143   4.682400
    37  O    4.168340   4.779696   2.785304   2.371649   6.403716
    38  H    4.226155   4.804344   2.950488   2.584786   6.394832
    39  H    6.317946   7.164562   5.035832   5.019813   8.081944
                   31         32         33         34         35
    31  H    0.000000
    32  C    3.716521   0.000000
    33  H    3.599124   1.100973   0.000000
    34  H    3.580047   1.100901   1.770107   0.000000
    35  O    5.144974   1.457327   2.133261   2.133198   0.000000
    36  H    5.672929   1.999255   2.385886   2.399271   0.992277
    37  O    6.675623   6.246689   6.896148   6.786880   6.334555
    38  H    6.652832   6.284044   7.039938   6.677374   6.398925
    39  H    8.612328   6.964888   7.537114   7.762077   6.449051
                   36         37         38         39
    36  H    0.000000
    37  O    7.317902   0.000000
    38  H    7.368058   0.995112   0.000000
    39  H    7.291533   3.086972   3.729792   0.000000
 Symmetry turned off by external request.
 Stoichiometry    C13H22NO3(1+)
 Framework group  C1[X(C13H22NO3)]
 Deg. of freedom   111
 Full point group                 C1      NOp   1
 Rotational constants (GHZ):      0.8530325      0.1899146      0.1724400
 Leave Link  202 at Mon Aug 22 00:58:16 2022, MaxMem=    62914560 cpu:         0.3
 (Enter /home/software/gaussian//09.d01/l301.exe)
 Standard basis: 6-311+G(d,p) (5D, 7F)
 Ernie: Thresh=  0.10000D-02 Tol=  0.10000D-05 Strict=F.
   506 basis functions,   788 primitive gaussians,   523 cartesian basis functions
    65 alpha electrons       65 beta electrons
       nuclear repulsion energy      1244.6638671917 Hartrees.
 IExCor=  402 DFT=T Ex+Corr=B3LYP ExCW=0 ScaHFX=  0.200000
 ScaDFX=  0.800000  0.720000  1.000000  0.810000 ScalE2=  1.000000  1.000000
 IRadAn=      0 IRanWt=     -1 IRanGd=            0 ICorTp=0 IEmpDi=  4
 NAtoms=   39 NActive=   39 NUniq=   39 SFac= 1.00D+00 NAtFMM=   60 NAOKFM=F Big=F
 Integral buffers will be    131072 words long.
 Raffenetti 2 integral format.
 Two-electron integral symmetry is turned off.
 Leave Link  301 at Mon Aug 22 00:58:16 2022, MaxMem=    62914560 cpu:         0.2
 (Enter /home/software/gaussian//09.d01/l302.exe)
 NPDir=0 NMtPBC=     1 NCelOv=     1 NCel=       1 NClECP=     1 NCelD=      1
         NCelK=      1 NCelE2=     1 NClLst=     1 CellRange=     0.0.
 One-electron integrals computed using PRISM.
 PrsmSu:  requested number of processors reduced to:  15 ShMem   1 Linda.
 NBasis=   506 RedAO= T EigKep=  1.58D-06  NBF=   506
 NBsUse=   505 1.00D-06 EigRej=  8.06D-07 NBFU=   505
 Precomputing XC quadrature grid using
 IXCGrd= 4 IRadAn=           0 IRanWt=          -1 IRanGd=           0 AccXCQ= 0.00D+00.
 Generated NRdTot=       0 NPtTot=           0 NUsed=           0 NTot=          32
 NSgBfM=   515   515   515   515   515 MxSgAt=    39 MxSgA2=    39.
 Leave Link  302 at Mon Aug 22 00:58:17 2022, MaxMem=    62914560 cpu:        14.8
 (Enter /home/software/gaussian//09.d01/l303.exe)
 DipDrv:  MaxL=1.
 Leave Link  303 at Mon Aug 22 00:58:17 2022, MaxMem=    62914560 cpu:         1.8
 (Enter /home/software/gaussian//09.d01/l401.exe)
 ExpMin= 4.38D-02 ExpMax= 8.59D+03 ExpMxC= 1.30D+03 IAcc=2 IRadAn=         4 AccDes= 0.00D+00
 Harris functional with IExCor=  402 and IRadAn=       4 diagonalized for initial guess.
 HarFok:  IExCor=  402 AccDes= 0.00D+00 IRadAn=         4 IDoV= 1 UseB2=F ITyADJ=14
 ICtDFT=  3500011 ScaDFX=  1.000000  1.000000  1.000000  1.000000
 FoFCou: FMM=F IPFlag=           0 FMFlag=      100000 FMFlg1=           0
         NFxFlg=           0 DoJE=T BraDBF=F KetDBF=T FulRan=T
         wScrn=  0.000000 ICntrl=     500 IOpCl=  0 I1Cent=   200000004 NGrid=           0
         NMat0=    1 NMatS0=      1 NMatT0=    0 NMatD0=    1 NMtDS0=    0 NMtDT0=    0
 Symmetry not used in FoFCou.
 Harris En= -789.141818579086    
 JPrj=0 DoOrth=F DoCkMO=F.
 Leave Link  401 at Mon Aug 22 00:58:19 2022, MaxMem=    62914560 cpu:        24.1
 (Enter /home/software/gaussian//09.d01/l502.exe)
 Closed shell SCF:
 Using DIIS extrapolation, IDIIS=  1040.
 Two-electron integral symmetry not used.
 IVT=      838113 IEndB=      838113 NGot=    62914560 MDV=    62354724
 LenX=    62354724 LenY=    62080672
 Requested convergence on RMS density matrix=1.00D-08 within  64 cycles.
 Requested convergence on MAX density matrix=1.00D-06.
 Requested convergence on             energy=1.00D-06.
 No special actions if energy rises.
 Fock matrices will be formed incrementally for  20 cycles.

 Cycle   1  Pass 1  IDiag  1:
 FoFJK:  IHMeth= 1 ICntrl=       0 DoSepK=F KAlg= 0 I1Cent=   0 FoldK=F
 IRaf= 770000000 NMat=   1 IRICut=       1 DoRegI=T DoRafI=F ISym2E= 0.
 FoFCou: FMM=F IPFlag=           0 FMFlag=      100000 FMFlg1=           0
         NFxFlg=           0 DoJE=F BraDBF=F KetDBF=F FulRan=T
         wScrn=  0.000000 ICntrl=       0 IOpCl=  0 I1Cent=           0 NGrid=           0
         NMat0=    1 NMatS0=      1 NMatT0=    0 NMatD0=    1 NMtDS0=    0 NMtDT0=    0
 Symmetry not used in FoFCou.
 E= -788.577579468465    
 DIIS: error= 3.14D-02 at cycle   1 NSaved=   1.
 NSaved= 1 IEnMin= 1 EnMin= -788.577579468465     IErMin= 1 ErrMin= 3.14D-02
 ErrMax= 3.14D-02  0.00D+00 EMaxC= 1.00D-01 BMatC= 5.65D-01 BMatP= 5.65D-01
 IDIUse=3 WtCom= 6.86D-01 WtEn= 3.14D-01
 Coeff-Com:  0.100D+01
 Coeff-En:   0.100D+01
 Coeff:      0.100D+01
 Gap=     0.236 Goal=   None    Shift=    0.000
 GapD=    0.236 DampG=1.000 DampE=0.500 DampFc=0.5000 IDamp=-1.
 Damping current iteration by 5.00D-01
 RMSDP=2.12D-02 MaxDP=3.01D+00              OVMax= 1.98D-01

 Cycle   2  Pass 1  IDiag  1:
 RMSU=  9.89D-03    CP:  1.12D+00
 E= -788.772358124323     Delta-E=       -0.194778655858 Rises=F Damp=T
 DIIS: error= 5.31D-03 at cycle   2 NSaved=   2.
 NSaved= 2 IEnMin= 2 EnMin= -788.772358124323     IErMin= 2 ErrMin= 5.31D-03
 ErrMax= 5.31D-03  0.00D+00 EMaxC= 1.00D-01 BMatC= 3.80D-02 BMatP= 5.65D-01
 IDIUse=3 WtCom= 9.47D-01 WtEn= 5.31D-02
 Coeff-Com:  0.901D-01 0.910D+00
 Coeff-En:   0.180D+00 0.820D+00
 Coeff:      0.949D-01 0.905D+00
 Gap=     0.185 Goal=   None    Shift=    0.000
 RMSDP=5.68D-03 MaxDP=8.83D-01 DE=-1.95D-01 OVMax= 1.18D-01

 Cycle   3  Pass 1  IDiag  1:
 RMSU=  3.79D-03    CP:  1.02D+00  7.15D-01
 E= -789.036763170589     Delta-E=       -0.264405046266 Rises=F Damp=F
 DIIS: error= 5.80D-03 at cycle   3 NSaved=   3.
 NSaved= 3 IEnMin= 3 EnMin= -789.036763170589     IErMin= 2 ErrMin= 5.31D-03
 ErrMax= 5.80D-03  0.00D+00 EMaxC= 1.00D-01 BMatC= 2.50D-02 BMatP= 3.80D-02
 IDIUse=3 WtCom= 9.42D-01 WtEn= 5.80D-02
 Coeff-Com: -0.194D-01 0.436D+00 0.584D+00
 Coeff-En:   0.000D+00 0.000D+00 0.100D+01
 Coeff:     -0.183D-01 0.410D+00 0.608D+00
 Gap=     0.191 Goal=   None    Shift=    0.000
 RMSDP=2.34D-03 MaxDP=2.54D-01 DE=-2.64D-01 OVMax= 3.34D-02

 Cycle   4  Pass 1  IDiag  1:
 RMSU=  1.82D-03    CP:  1.04D+00  8.53D-01  9.09D-01
 E= -789.050539419623     Delta-E=       -0.013776249034 Rises=F Damp=F
 DIIS: error= 2.67D-03 at cycle   4 NSaved=   4.
 NSaved= 4 IEnMin= 4 EnMin= -789.050539419623     IErMin= 4 ErrMin= 2.67D-03
 ErrMax= 2.67D-03  0.00D+00 EMaxC= 1.00D-01 BMatC= 5.67D-03 BMatP= 2.50D-02
 IDIUse=3 WtCom= 9.73D-01 WtEn= 2.67D-02
 Coeff-Com: -0.233D-01 0.121D+00 0.359D+00 0.544D+00
 Coeff-En:   0.000D+00 0.000D+00 0.203D+00 0.797D+00
 Coeff:     -0.227D-01 0.118D+00 0.354D+00 0.550D+00
 Gap=     0.183 Goal=   None    Shift=    0.000
 RMSDP=1.56D-03 MaxDP=2.21D-01 DE=-1.38D-02 OVMax= 1.50D-02

 Cycle   5  Pass 1  IDiag  1:
 RMSU=  6.29D-04    CP:  9.99D-01  7.99D-01  8.99D-01  6.49D-01
 E= -789.055082962303     Delta-E=       -0.004543542680 Rises=F Damp=F
 DIIS: error= 6.10D-04 at cycle   5 NSaved=   5.
 NSaved= 5 IEnMin= 5 EnMin= -789.055082962303     IErMin= 5 ErrMin= 6.10D-04
 ErrMax= 6.10D-04  0.00D+00 EMaxC= 1.00D-01 BMatC= 1.50D-04 BMatP= 5.67D-03
 IDIUse=3 WtCom= 9.94D-01 WtEn= 6.10D-03
 Coeff-Com: -0.893D-02 0.269D-01 0.116D+00 0.234D+00 0.632D+00
 Coeff-En:   0.000D+00 0.000D+00 0.000D+00 0.000D+00 0.100D+01
 Coeff:     -0.888D-02 0.268D-01 0.115D+00 0.233D+00 0.634D+00
 Gap=     0.184 Goal=   None    Shift=    0.000
 RMSDP=1.99D-04 MaxDP=1.97D-02 DE=-4.54D-03 OVMax= 6.19D-03

 Cycle   6  Pass 1  IDiag  1:
 RMSU=  1.40D-04    CP:  1.00D+00  8.04D-01  9.11D-01  6.95D-01  8.57D-01
 E= -789.055167506804     Delta-E=       -0.000084544501 Rises=F Damp=F
 DIIS: error= 4.31D-04 at cycle   6 NSaved=   6.
 NSaved= 6 IEnMin= 6 EnMin= -789.055167506804     IErMin= 6 ErrMin= 4.31D-04
 ErrMax= 4.31D-04  0.00D+00 EMaxC= 1.00D-01 BMatC= 5.22D-05 BMatP= 1.50D-04
 IDIUse=3 WtCom= 9.96D-01 WtEn= 4.31D-03
 Coeff-Com: -0.347D-02 0.621D-02 0.408D-01 0.100D+00 0.418D+00 0.438D+00
 Coeff-En:   0.000D+00 0.000D+00 0.000D+00 0.000D+00 0.298D+00 0.702D+00
 Coeff:     -0.345D-02 0.618D-02 0.406D-01 0.997D-01 0.418D+00 0.439D+00
 Gap=     0.183 Goal=   None    Shift=    0.000
 RMSDP=8.81D-05 MaxDP=1.18D-02 DE=-8.45D-05 OVMax= 3.39D-03

 Cycle   7  Pass 1  IDiag  1:
 RMSU=  4.49D-05    CP:  1.00D+00  8.06D-01  9.08D-01  6.91D-01  8.47D-01
                    CP:  6.11D-01
 E= -789.055220951220     Delta-E=       -0.000053444416 Rises=F Damp=F
 DIIS: error= 5.73D-05 at cycle   7 NSaved=   7.
 NSaved= 7 IEnMin= 7 EnMin= -789.055220951220     IErMin= 7 ErrMin= 5.73D-05
 ErrMax= 5.73D-05  0.00D+00 EMaxC= 1.00D-01 BMatC= 1.93D-06 BMatP= 5.22D-05
 IDIUse=1 WtCom= 1.00D+00 WtEn= 0.00D+00
 Coeff-Com: -0.122D-02 0.153D-02 0.147D-01 0.397D-01 0.186D+00 0.238D+00
 Coeff-Com:  0.521D+00
 Coeff:     -0.122D-02 0.153D-02 0.147D-01 0.397D-01 0.186D+00 0.238D+00
 Coeff:      0.521D+00
 Gap=     0.183 Goal=   None    Shift=    0.000
 RMSDP=1.85D-05 MaxDP=3.80D-03 DE=-5.34D-05 OVMax= 6.11D-04

 Cycle   8  Pass 1  IDiag  1:
 RMSU=  1.11D-05    CP:  1.00D+00  8.06D-01  9.09D-01  6.88D-01  8.52D-01
                    CP:  6.15D-01  7.45D-01
 E= -789.055222604450     Delta-E=       -0.000001653229 Rises=F Damp=F
 DIIS: error= 1.29D-05 at cycle   8 NSaved=   8.
 NSaved= 8 IEnMin= 8 EnMin= -789.055222604450     IErMin= 8 ErrMin= 1.29D-05
 ErrMax= 1.29D-05  0.00D+00 EMaxC= 1.00D-01 BMatC= 1.92D-07 BMatP= 1.93D-06
 IDIUse=1 WtCom= 1.00D+00 WtEn= 0.00D+00
 Coeff-Com: -0.692D-04-0.253D-03 0.133D-02 0.520D-02 0.308D-01 0.555D-01
 Coeff-Com:  0.268D+00 0.640D+00
 Coeff:     -0.692D-04-0.253D-03 0.133D-02 0.520D-02 0.308D-01 0.555D-01
 Coeff:      0.268D+00 0.640D+00
 Gap=     0.183 Goal=   None    Shift=    0.000
 RMSDP=7.31D-06 MaxDP=6.79D-04 DE=-1.65D-06 OVMax= 1.22D-04

 Cycle   9  Pass 1  IDiag  1:
 RMSU=  4.79D-06    CP:  1.00D+00  8.06D-01  9.09D-01  6.90D-01  8.54D-01
                    CP:  6.24D-01  7.72D-01  8.36D-01
 E= -789.055222769342     Delta-E=       -0.000000164893 Rises=F Damp=F
 DIIS: error= 3.92D-06 at cycle   9 NSaved=   9.
 NSaved= 9 IEnMin= 9 EnMin= -789.055222769342     IErMin= 9 ErrMin= 3.92D-06
 ErrMax= 3.92D-06  0.00D+00 EMaxC= 1.00D-01 BMatC= 7.94D-09 BMatP= 1.92D-07
 IDIUse=1 WtCom= 1.00D+00 WtEn= 0.00D+00
 Coeff-Com:  0.424D-04-0.178D-03-0.241D-03-0.780D-04 0.211D-02 0.912D-02
 Coeff-Com:  0.722D-01 0.253D+00 0.664D+00
 Coeff:      0.424D-04-0.178D-03-0.241D-03-0.780D-04 0.211D-02 0.912D-02
 Coeff:      0.722D-01 0.253D+00 0.664D+00
 Gap=     0.183 Goal=   None    Shift=    0.000
 RMSDP=1.45D-06 MaxDP=1.46D-04 DE=-1.65D-07 OVMax= 2.95D-05

 Cycle  10  Pass 1  IDiag  1:
 RMSU=  8.02D-07    CP:  1.00D+00  8.06D-01  9.09D-01  6.90D-01  8.54D-01
                    CP:  6.29D-01  7.78D-01  8.35D-01  8.93D-01
 E= -789.055222774658     Delta-E=       -0.000000005315 Rises=F Damp=F
 DIIS: error= 1.83D-06 at cycle  10 NSaved=  10.
 NSaved=10 IEnMin=10 EnMin= -789.055222774658     IErMin=10 ErrMin= 1.83D-06
 ErrMax= 1.83D-06  0.00D+00 EMaxC= 1.00D-01 BMatC= 1.80D-09 BMatP= 7.94D-09
 IDIUse=1 WtCom= 1.00D+00 WtEn= 0.00D+00
 Coeff-Com:  0.257D-04-0.767D-04-0.218D-03-0.407D-03-0.104D-02 0.104D-02
 Coeff-Com:  0.195D-01 0.928D-01 0.384D+00 0.504D+00
 Coeff:      0.257D-04-0.767D-04-0.218D-03-0.407D-03-0.104D-02 0.104D-02
 Coeff:      0.195D-01 0.928D-01 0.384D+00 0.504D+00
 Gap=     0.183 Goal=   None    Shift=    0.000
 RMSDP=3.68D-07 MaxDP=3.34D-05 DE=-5.32D-09 OVMax= 1.67D-05

 Cycle  11  Pass 1  IDiag  1:
 RMSU=  2.52D-07    CP:  1.00D+00  8.06D-01  9.09D-01  6.90D-01  8.54D-01
                    CP:  6.28D-01  7.81D-01  8.40D-01  8.83D-01  7.81D-01
 E= -789.055222776263     Delta-E=       -0.000000001606 Rises=F Damp=F
 DIIS: error= 5.49D-07 at cycle  11 NSaved=  11.
 NSaved=11 IEnMin=11 EnMin= -789.055222776263     IErMin=11 ErrMin= 5.49D-07
 ErrMax= 5.49D-07  0.00D+00 EMaxC= 1.00D-01 BMatC= 1.24D-10 BMatP= 1.80D-09
 IDIUse=1 WtCom= 1.00D+00 WtEn= 0.00D+00
 Coeff-Com:  0.785D-05-0.207D-04-0.888D-04-0.198D-03-0.711D-03-0.309D-03
 Coeff-Com:  0.305D-02 0.223D-01 0.135D+00 0.257D+00 0.584D+00
 Coeff:      0.785D-05-0.207D-04-0.888D-04-0.198D-03-0.711D-03-0.309D-03
 Coeff:      0.305D-02 0.223D-01 0.135D+00 0.257D+00 0.584D+00
 Gap=     0.183 Goal=   None    Shift=    0.000
 RMSDP=1.72D-07 MaxDP=1.30D-05 DE=-1.61D-09 OVMax= 5.53D-06

 Cycle  12  Pass 1  IDiag  1:
 RMSU=  1.07D-07    CP:  1.00D+00  8.06D-01  9.09D-01  6.90D-01  8.54D-01
                    CP:  6.28D-01  7.81D-01  8.45D-01  8.96D-01  7.64D-01
                    CP:  7.37D-01
 E= -789.055222776321     Delta-E=       -0.000000000058 Rises=F Damp=F
 DIIS: error= 2.32D-07 at cycle  12 NSaved=  12.
 NSaved=12 IEnMin=12 EnMin= -789.055222776321     IErMin=12 ErrMin= 2.32D-07
 ErrMax= 2.32D-07  0.00D+00 EMaxC= 1.00D-01 BMatC= 2.39D-11 BMatP= 1.24D-10
 IDIUse=1 WtCom= 1.00D+00 WtEn= 0.00D+00
 Coeff-Com:  0.777D-06-0.134D-05-0.227D-04-0.572D-04-0.248D-03-0.266D-03
 Coeff-Com: -0.749D-03 0.480D-03 0.259D-01 0.768D-01 0.342D+00 0.556D+00
 Coeff:      0.777D-06-0.134D-05-0.227D-04-0.572D-04-0.248D-03-0.266D-03
 Coeff:     -0.749D-03 0.480D-03 0.259D-01 0.768D-01 0.342D+00 0.556D+00
 Gap=     0.183 Goal=   None    Shift=    0.000
 RMSDP=6.75D-08 MaxDP=6.98D-06 DE=-5.78D-11 OVMax= 2.01D-06

 Cycle  13  Pass 1  IDiag  1:
 RMSU=  2.83D-08    CP:  1.00D+00  8.06D-01  9.09D-01  6.90D-01  8.54D-01
                    CP:  6.28D-01  7.81D-01  8.44D-01  9.01D-01  7.69D-01
                    CP:  7.96D-01  7.07D-01
 E= -789.055222776367     Delta-E=       -0.000000000046 Rises=F Damp=F
 DIIS: error= 4.70D-08 at cycle  13 NSaved=  13.
 NSaved=13 IEnMin=13 EnMin= -789.055222776367     IErMin=13 ErrMin= 4.70D-08
 ErrMax= 4.70D-08  0.00D+00 EMaxC= 1.00D-01 BMatC= 1.46D-12 BMatP= 2.39D-11
 IDIUse=1 WtCom= 1.00D+00 WtEn= 0.00D+00
 Coeff-Com: -0.239D-06 0.913D-06-0.519D-05-0.140D-04-0.761D-04-0.110D-03
 Coeff-Com: -0.653D-03-0.151D-02 0.238D-02 0.176D-01 0.120D+00 0.276D+00
 Coeff-Com:  0.586D+00
 Coeff:     -0.239D-06 0.913D-06-0.519D-05-0.140D-04-0.761D-04-0.110D-03
 Coeff:     -0.653D-03-0.151D-02 0.238D-02 0.176D-01 0.120D+00 0.276D+00
 Coeff:      0.586D+00
 Gap=     0.183 Goal=   None    Shift=    0.000
 RMSDP=2.18D-08 MaxDP=4.23D-06 DE=-4.59D-11 OVMax= 4.24D-07

 Cycle  14  Pass 1  IDiag  1:
 RMSU=  1.14D-08    CP:  1.00D+00  8.06D-01  9.09D-01  6.90D-01  8.54D-01
                    CP:  6.28D-01  7.81D-01  8.44D-01  9.01D-01  7.77D-01
                    CP:  8.17D-01  7.34D-01  8.34D-01
 E= -789.055222776331     Delta-E=        0.000000000036 Rises=F Damp=F
 DIIS: error= 1.88D-08 at cycle  14 NSaved=  14.
 NSaved=14 IEnMin=13 EnMin= -789.055222776367     IErMin=14 ErrMin= 1.88D-08
 ErrMax= 1.88D-08  0.00D+00 EMaxC= 1.00D-01 BMatC= 2.02D-13 BMatP= 1.46D-12
 IDIUse=1 WtCom= 1.00D+00 WtEn= 0.00D+00
 Coeff-Com: -0.195D-06 0.580D-06-0.365D-06-0.102D-05-0.130D-04-0.280D-04
 Coeff-Com: -0.260D-03-0.814D-03-0.186D-02-0.307D-03 0.203D-01 0.795D-01
 Coeff-Com:  0.316D+00 0.588D+00
 Coeff:     -0.195D-06 0.580D-06-0.365D-06-0.102D-05-0.130D-04-0.280D-04
 Coeff:     -0.260D-03-0.814D-03-0.186D-02-0.307D-03 0.203D-01 0.795D-01
 Coeff:      0.316D+00 0.588D+00
 Gap=     0.183 Goal=   None    Shift=    0.000
 RMSDP=7.12D-09 MaxDP=9.48D-07 DE= 3.64D-11 OVMax= 1.18D-07

 SCF Done:  E(RB3LYP) =  -789.055222776     A.U. after   14 cycles
            NFock= 14  Conv=0.71D-08     -V/T= 2.0045
 KE= 7.854846733310D+02 PE=-4.311773287431D+03 EE= 1.492569524132D+03
 Leave Link  502 at Mon Aug 22 00:59:32 2022, MaxMem=    62914560 cpu:      1089.6
 (Enter /home/software/gaussian//09.d01/l508.exe)
 QCSCF skips out because SCF is already converged.
 Leave Link  508 at Mon Aug 22 00:59:32 2022, MaxMem=    62914560 cpu:         0.0
 (Enter /home/software/gaussian//09.d01/l601.exe)
 Copying SCF densities to generalized density rwf, IOpCl= 0 IROHF=0.

 **********************************************************************

            Population analysis using the SCF density.

 **********************************************************************

 Alpha  occ. eigenvalues --  -19.27529 -19.25665 -19.21966 -14.58886 -10.39351
 Alpha  occ. eigenvalues --  -10.38340 -10.38009 -10.34136 -10.31684 -10.31599
 Alpha  occ. eigenvalues --  -10.31561 -10.31520 -10.29299 -10.28424 -10.28394
 Alpha  occ. eigenvalues --  -10.28127 -10.28095  -1.19065  -1.15609  -1.15301
 Alpha  occ. eigenvalues --   -1.10437  -0.97673  -0.96679  -0.91826  -0.87569
 Alpha  occ. eigenvalues --   -0.86194  -0.85202  -0.84192  -0.78639  -0.77896
 Alpha  occ. eigenvalues --   -0.76158  -0.75962  -0.72687  -0.69053  -0.67344
 Alpha  occ. eigenvalues --   -0.65403  -0.64570  -0.64493  -0.61994  -0.59835
 Alpha  occ. eigenvalues --   -0.59298  -0.58754  -0.56426  -0.56009  -0.55595
 Alpha  occ. eigenvalues --   -0.55049  -0.54517  -0.54306  -0.53954  -0.53672
 Alpha  occ. eigenvalues --   -0.52565  -0.52181  -0.51877  -0.49968  -0.49347
 Alpha  occ. eigenvalues --   -0.49267  -0.48898  -0.48128  -0.45391  -0.44628
 Alpha  occ. eigenvalues --   -0.43591  -0.42887  -0.37881  -0.35722  -0.33312
 Alpha virt. eigenvalues --   -0.14992  -0.12231  -0.11962  -0.10954  -0.10868
 Alpha virt. eigenvalues --   -0.10554  -0.08629  -0.08562  -0.07880  -0.07691
 Alpha virt. eigenvalues --   -0.07490  -0.06762  -0.06550  -0.05873  -0.05378
 Alpha virt. eigenvalues --   -0.05191  -0.04705  -0.04054  -0.03348  -0.02938
 Alpha virt. eigenvalues --   -0.02706  -0.02075  -0.01749  -0.01400  -0.01373
 Alpha virt. eigenvalues --   -0.00962  -0.00420  -0.00124   0.00087   0.00654
 Alpha virt. eigenvalues --    0.00746   0.01331   0.01532   0.01927   0.02764
 Alpha virt. eigenvalues --    0.03174   0.03577   0.03809   0.04187   0.04312
 Alpha virt. eigenvalues --    0.04417   0.04960   0.05269   0.05651   0.06025
 Alpha virt. eigenvalues --    0.06346   0.06723   0.06843   0.07670   0.07968
 Alpha virt. eigenvalues --    0.08241   0.08349   0.08549   0.08967   0.09116
 Alpha virt. eigenvalues --    0.09466   0.09751   0.09988   0.10550   0.10724
 Alpha virt. eigenvalues --    0.11039   0.11265   0.11828   0.11970   0.12455
 Alpha virt. eigenvalues --    0.12895   0.13105   0.13251   0.13439   0.13682
 Alpha virt. eigenvalues --    0.14221   0.14415   0.14571   0.15226   0.15480
 Alpha virt. eigenvalues --    0.15866   0.16162   0.16346   0.16951   0.17739
 Alpha virt. eigenvalues --    0.17973   0.18131   0.18840   0.19141   0.19400
 Alpha virt. eigenvalues --    0.19939   0.20529   0.20798   0.20937   0.21819
 Alpha virt. eigenvalues --    0.21995   0.22502   0.22804   0.23643   0.25004
 Alpha virt. eigenvalues --    0.25317   0.25974   0.26115   0.27543   0.28214
 Alpha virt. eigenvalues --    0.28858   0.29326   0.29738   0.30547   0.31001
 Alpha virt. eigenvalues --    0.31513   0.33136   0.33366   0.34095   0.34991
 Alpha virt. eigenvalues --    0.37208   0.37560   0.38508   0.39614   0.39888
 Alpha virt. eigenvalues --    0.40361   0.40951   0.41689   0.42284   0.42645
 Alpha virt. eigenvalues --    0.42985   0.44218   0.44915   0.45564   0.46068
 Alpha virt. eigenvalues --    0.46320   0.47182   0.47565   0.47831   0.48321
 Alpha virt. eigenvalues --    0.48748   0.49193   0.50506   0.50963   0.51533
 Alpha virt. eigenvalues --    0.51812   0.52343   0.53352   0.53657   0.54046
 Alpha virt. eigenvalues --    0.54729   0.55499   0.55789   0.57194   0.57485
 Alpha virt. eigenvalues --    0.58329   0.58364   0.59288   0.59678   0.60168
 Alpha virt. eigenvalues --    0.60322   0.60826   0.61740   0.62261   0.62569
 Alpha virt. eigenvalues --    0.62815   0.63701   0.64108   0.64597   0.65343
 Alpha virt. eigenvalues --    0.66603   0.66846   0.67231   0.68220   0.69149
 Alpha virt. eigenvalues --    0.72653   0.74276   0.74786   0.75828   0.77894
 Alpha virt. eigenvalues --    0.79708   0.80444   0.80507   0.82044   0.82258
 Alpha virt. eigenvalues --    0.84741   0.85964   0.87186   0.88271   0.89299
 Alpha virt. eigenvalues --    0.90232   0.91568   0.91668   0.92743   0.94176
 Alpha virt. eigenvalues --    0.94726   0.95444   0.96951   0.99102   0.99958
 Alpha virt. eigenvalues --    1.01359   1.01991   1.02871   1.03386   1.04656
 Alpha virt. eigenvalues --    1.06323   1.06982   1.07747   1.08724   1.09705
 Alpha virt. eigenvalues --    1.11437   1.12875   1.13926   1.16075   1.18111
 Alpha virt. eigenvalues --    1.19145   1.21687   1.25479   1.26655   1.26887
 Alpha virt. eigenvalues --    1.27809   1.28419   1.30032   1.30230   1.31243
 Alpha virt. eigenvalues --    1.31422   1.32630   1.32826   1.34505   1.35505
 Alpha virt. eigenvalues --    1.36090   1.37344   1.37666   1.38302   1.39136
 Alpha virt. eigenvalues --    1.40570   1.41051   1.41913   1.42451   1.42934
 Alpha virt. eigenvalues --    1.43412   1.44628   1.45768   1.46459   1.47733
 Alpha virt. eigenvalues --    1.48174   1.48946   1.49043   1.49653   1.50444
 Alpha virt. eigenvalues --    1.50645   1.51416   1.51919   1.52463   1.52602
 Alpha virt. eigenvalues --    1.54164   1.54300   1.55942   1.57812   1.58624
 Alpha virt. eigenvalues --    1.59193   1.59791   1.61190   1.62629   1.63075
 Alpha virt. eigenvalues --    1.63415   1.64345   1.64939   1.67453   1.68137
 Alpha virt. eigenvalues --    1.69061   1.69671   1.71229   1.72576   1.73340
 Alpha virt. eigenvalues --    1.74069   1.75985   1.77380   1.78732   1.81433
 Alpha virt. eigenvalues --    1.82119   1.82247   1.84033   1.84343   1.84913
 Alpha virt. eigenvalues --    1.86481   1.87037   1.87711   1.90025   1.90886
 Alpha virt. eigenvalues --    1.91777   1.91948   1.93888   1.95169   1.95629
 Alpha virt. eigenvalues --    1.96628   1.97071   1.97206   1.99765   2.00333
 Alpha virt. eigenvalues --    2.01324   2.02972   2.04162   2.05751   2.07469
 Alpha virt. eigenvalues --    2.09153   2.11851   2.13566   2.13887   2.15617
 Alpha virt. eigenvalues --    2.18341   2.19923   2.21807   2.23320   2.25947
 Alpha virt. eigenvalues --    2.26687   2.27972   2.29854   2.30926   2.31128
 Alpha virt. eigenvalues --    2.32980   2.33355   2.35734   2.36227   2.37231
 Alpha virt. eigenvalues --    2.37384   2.39641   2.39702   2.40587   2.42413
 Alpha virt. eigenvalues --    2.44024   2.44272   2.45046   2.45382   2.46439
 Alpha virt. eigenvalues --    2.48142   2.49027   2.49321   2.51692   2.52292
 Alpha virt. eigenvalues --    2.54236   2.55414   2.55665   2.56457   2.57505
 Alpha virt. eigenvalues --    2.58393   2.58800   2.60335   2.62546   2.63196
 Alpha virt. eigenvalues --    2.64282   2.65521   2.66587   2.67360   2.68652
 Alpha virt. eigenvalues --    2.69450   2.70901   2.71371   2.72695   2.73481
 Alpha virt. eigenvalues --    2.74870   2.78000   2.79225   2.83824   2.85160
 Alpha virt. eigenvalues --    2.85650   2.87053   2.88755   2.91073   2.93256
 Alpha virt. eigenvalues --    2.94933   2.95404   2.96359   2.96723   2.97928
 Alpha virt. eigenvalues --    2.99078   3.01812   3.02097   3.03684   3.05787
 Alpha virt. eigenvalues --    3.07578   3.08869   3.09127   3.10431   3.11945
 Alpha virt. eigenvalues --    3.13632   3.15900   3.18522   3.19476   3.25327
 Alpha virt. eigenvalues --    3.29198   3.31182   3.37146   3.43948   3.47562
 Alpha virt. eigenvalues --    3.50538   3.60012   3.61041   3.62586   3.63130
 Alpha virt. eigenvalues --    3.64008   3.65206   3.66691   3.67273   3.67654
 Alpha virt. eigenvalues --    3.68511   3.71552   3.73707   3.78102   3.80207
 Alpha virt. eigenvalues --    3.82477   3.90837   3.98197   4.01913   4.05856
 Alpha virt. eigenvalues --    4.08443   4.10171   4.10633   4.17924   4.24119
 Alpha virt. eigenvalues --    4.57952   4.58921   4.70144   4.76396   4.91032
 Alpha virt. eigenvalues --    4.92605   5.02145   5.25068   5.31683   5.33314
 Alpha virt. eigenvalues --    5.45333   5.52618   5.60170  23.46967  23.57426
 Alpha virt. eigenvalues --   23.67675  23.70673  23.74154  23.80206  23.81096
 Alpha virt. eigenvalues --   23.81716  23.82892  23.85802  23.95483  23.99976
 Alpha virt. eigenvalues --   24.07634  35.40038  49.78516  49.81427  49.84559
          Condensed to atoms (all electrons):
               1          2          3          4          5          6
     1  C    5.883028   0.432243   0.389376   0.310900  -0.293453  -0.310933
     2  H    0.432243   0.464948  -0.020330  -0.017787  -0.036854  -0.020183
     3  H    0.389376  -0.020330   0.495317  -0.023343  -0.011567  -0.007399
     4  H    0.310900  -0.017787  -0.023343   0.505683   0.072249   0.019896
     5  C   -0.293453  -0.036854  -0.011567   0.072249   7.042204   0.423201
     6  C   -0.310933  -0.020183  -0.007399   0.019896   0.423201   5.556268
     7  H   -0.044044  -0.000374   0.002043   0.000264   0.008843   0.379963
     8  H   -0.006165   0.000390  -0.000745   0.000021  -0.056692   0.430646
     9  H    0.048125   0.000088  -0.000118  -0.000429  -0.012059   0.356375
    10  C   -0.176977  -0.011287   0.012682  -0.016202  -0.302450  -0.207426
    11  H   -0.006100   0.000249   0.000146  -0.000370  -0.032609  -0.028462
    12  H   -0.007867  -0.000369   0.000202   0.000096   0.063770   0.017674
    13  H    0.007982   0.000230  -0.000465   0.000121  -0.052850  -0.007657
    14  N    0.258201   0.009878   0.013132  -0.038831  -0.676868  -0.345432
    15  H   -0.033413  -0.000166  -0.002734   0.002288   0.014955   0.019710
    16  C   -0.191698   0.005822  -0.018439   0.013776   0.412870   0.099442
    17  H    0.031648  -0.000076  -0.000017  -0.000625  -0.044608  -0.001438
    18  H   -0.005706  -0.000032  -0.000581   0.005785  -0.022601  -0.000842
    19  C    0.010567   0.000880   0.000735   0.008483  -0.389832   0.021589
    20  H    0.002108   0.000000  -0.000014  -0.000034   0.014632  -0.002915
    21  C   -0.014350   0.000027  -0.000708  -0.008016   0.110186  -0.028716
    22  C    0.007298   0.000072  -0.000792  -0.002261   0.027403  -0.003308
    23  H    0.000050   0.000000   0.000000  -0.000001   0.000905   0.000056
    24  C    0.007156   0.000013  -0.000021  -0.000967  -0.010201  -0.002624
    25  C   -0.002191   0.000003  -0.000017   0.000061  -0.000353   0.000956
    26  C    0.012544  -0.000058   0.000088  -0.000061   0.009257  -0.004118
    27  H    0.000004   0.000000   0.000000   0.000000   0.000007   0.000001
    28  C    0.016526  -0.000275   0.000326   0.004615  -0.000548   0.000592
    29  H   -0.000822   0.000000   0.000004  -0.000005   0.000687   0.000065
    30  O    0.000006   0.000000   0.000000   0.000000  -0.000027   0.000000
    31  H    0.000000   0.000000   0.000000   0.000000   0.000002   0.000000
    32  C    0.000669   0.000000   0.000001  -0.000028  -0.000367  -0.000321
    33  H    0.000000   0.000000   0.000000   0.000000   0.000005   0.000001
    34  H    0.000000   0.000000   0.000000   0.000000  -0.000007   0.000000
    35  O    0.000013   0.000000   0.000000   0.000000  -0.000175  -0.000010
    36  H    0.000002   0.000000   0.000000   0.000000  -0.000001   0.000000
    37  O    0.009936  -0.000075  -0.000178   0.000008  -0.016467   0.003285
    38  H    0.000758   0.000000  -0.000010   0.000000  -0.000066  -0.000512
    39  H    0.016839  -0.000089  -0.000176  -0.000389   0.026780  -0.000296
               7          8          9         10         11         12
     1  C   -0.044044  -0.006165   0.048125  -0.176977  -0.006100  -0.007867
     2  H   -0.000374   0.000390   0.000088  -0.011287   0.000249  -0.000369
     3  H    0.002043  -0.000745  -0.000118   0.012682   0.000146   0.000202
     4  H    0.000264   0.000021  -0.000429  -0.016202  -0.000370   0.000096
     5  C    0.008843  -0.056692  -0.012059  -0.302450  -0.032609   0.063770
     6  C    0.379963   0.430646   0.356375  -0.207426  -0.028462   0.017674
     7  H    0.509581  -0.018271  -0.027260   0.034851   0.000190  -0.000370
     8  H   -0.018271   0.458943  -0.017983  -0.003076   0.000701   0.000104
     9  H   -0.027260  -0.017983   0.522826  -0.039209  -0.000267   0.000259
    10  C    0.034851  -0.003076  -0.039209   5.854759   0.430511   0.316429
    11  H    0.000190   0.000701  -0.000267   0.430511   0.460601  -0.016872
    12  H   -0.000370   0.000104   0.000259   0.316429  -0.016872   0.503758
    13  H   -0.000130  -0.000716   0.001515   0.413233  -0.019844  -0.025582
    14  N   -0.015329   0.021714   0.006686   0.270233   0.010568  -0.045604
    15  H    0.007645  -0.000700  -0.002717   0.017118  -0.000159  -0.000330
    16  C   -0.002089  -0.000915  -0.002561  -0.232744   0.007290   0.013620
    17  H    0.000002  -0.000006   0.000111  -0.007980   0.000190   0.004563
    18  H   -0.000013  -0.000008   0.000073   0.019817   0.000004  -0.000102
    19  C    0.000543  -0.000561  -0.000081   0.150854   0.000415   0.005575
    20  H   -0.000020   0.000001   0.000124  -0.004622  -0.000002   0.000144
    21  C   -0.001238   0.000028   0.000338  -0.053406   0.000087  -0.001943
    22  C   -0.000518   0.000017   0.000800  -0.014185   0.000079   0.001275
    23  H    0.000000   0.000000   0.000000  -0.000955   0.000000   0.000006
    24  C   -0.000035   0.000003   0.000102   0.004525   0.000004   0.001104
    25  C   -0.000005   0.000000   0.000000   0.001666   0.000000   0.000057
    26  C    0.000020   0.000000   0.000012  -0.010382   0.000000   0.000197
    27  H    0.000000   0.000000   0.000000  -0.000008   0.000000   0.000000
    28  C    0.000377  -0.000009  -0.000167  -0.013319  -0.000014  -0.001746
    29  H    0.000000   0.000000   0.000000   0.000103   0.000000  -0.000001
    30  O    0.000000   0.000000   0.000000   0.000013   0.000000   0.000000
    31  H    0.000000   0.000000   0.000000  -0.000001   0.000000   0.000000
    32  C    0.000001   0.000000   0.000001  -0.000526  -0.000001  -0.000090
    33  H    0.000000   0.000000   0.000000   0.000007   0.000000   0.000000
    34  H    0.000000   0.000000   0.000000   0.000002   0.000000   0.000000
    35  O    0.000000   0.000000   0.000000   0.000091   0.000000  -0.000002
    36  H    0.000000   0.000000   0.000000  -0.000001   0.000000   0.000000
    37  O   -0.000634  -0.000014   0.000265   0.002017   0.000020   0.000043
    38  H   -0.000009   0.000000   0.000006  -0.000774   0.000000   0.000003
    39  H   -0.000865  -0.000755   0.008677  -0.036656  -0.000334   0.002779
              13         14         15         16         17         18
     1  C    0.007982   0.258201  -0.033413  -0.191698   0.031648  -0.005706
     2  H    0.000230   0.009878  -0.000166   0.005822  -0.000076  -0.000032
     3  H   -0.000465   0.013132  -0.002734  -0.018439  -0.000017  -0.000581
     4  H    0.000121  -0.038831   0.002288   0.013776  -0.000625   0.005785
     5  C   -0.052850  -0.676868   0.014955   0.412870  -0.044608  -0.022601
     6  C   -0.007657  -0.345432   0.019710   0.099442  -0.001438  -0.000842
     7  H   -0.000130  -0.015329   0.007645  -0.002089   0.000002  -0.000013
     8  H   -0.000716   0.021714  -0.000700  -0.000915  -0.000006  -0.000008
     9  H    0.001515   0.006686  -0.002717  -0.002561   0.000111   0.000073
    10  C    0.413233   0.270233   0.017118  -0.232744  -0.007980   0.019817
    11  H   -0.019844   0.010568  -0.000159   0.007290   0.000190   0.000004
    12  H   -0.025582  -0.045604  -0.000330   0.013620   0.004563  -0.000102
    13  H    0.507717   0.035335   0.000127  -0.015601  -0.000485   0.000109
    14  N    0.035335   7.226345   0.316137  -0.368480   0.001770  -0.005715
    15  H    0.000127   0.316137   0.335611   0.007235   0.000973  -0.002264
    16  C   -0.015601  -0.368480   0.007235   7.003120   0.389222   0.367864
    17  H   -0.000485   0.001770   0.000973   0.389222   0.446690  -0.015757
    18  H    0.000109  -0.005715  -0.002264   0.367864  -0.015757   0.428739
    19  C   -0.006993  -0.019795   0.034398  -1.985855   0.011081   0.051819
    20  H    0.000099   0.005965  -0.001066  -0.036515  -0.003657   0.004968
    21  C   -0.000060  -0.042343  -0.039034   0.723465  -0.048886  -0.047044
    22  C    0.002684  -0.027347   0.004585   0.350033   0.006239  -0.016718
    23  H   -0.000005  -0.001330  -0.000016  -0.004405   0.000632  -0.000034
    24  C    0.000327   0.019021   0.000325  -0.070581   0.013647  -0.001340
    25  C    0.000036  -0.008724   0.000554   0.024115   0.003886   0.001015
    26  C   -0.000077   0.045484  -0.004653   0.074066  -0.004153  -0.007177
    27  H    0.000000  -0.000023   0.000000  -0.001279   0.000002   0.000039
    28  C    0.000187   0.013482  -0.004091   0.125234   0.002905   0.027564
    29  H    0.000000  -0.001914   0.000170  -0.004723  -0.000023   0.001103
    30  O    0.000000   0.000024   0.000000  -0.000791   0.000002   0.000000
    31  H    0.000000   0.000001   0.000000   0.000016   0.000000   0.000000
    32  C    0.000026   0.002148  -0.000089  -0.006541  -0.000309   0.000398
    33  H    0.000000   0.000001   0.000000   0.000361  -0.000005   0.000000
    34  H    0.000000   0.000001   0.000000  -0.000404   0.000001   0.000000
    35  O    0.000001   0.000131   0.000000  -0.001984  -0.000048   0.000006
    36  H    0.000000   0.000000   0.000000   0.000209  -0.000001   0.000000
    37  O    0.000079   0.008764   0.030060  -0.091064   0.007797  -0.009913
    38  H    0.000003  -0.001244  -0.003118  -0.033302  -0.000403   0.000825
    39  H   -0.004373   0.324925  -0.021316  -0.004991  -0.004975   0.002730
              19         20         21         22         23         24
     1  C    0.010567   0.002108  -0.014350   0.007298   0.000050   0.007156
     2  H    0.000880   0.000000   0.000027   0.000072   0.000000   0.000013
     3  H    0.000735  -0.000014  -0.000708  -0.000792   0.000000  -0.000021
     4  H    0.008483  -0.000034  -0.008016  -0.002261  -0.000001  -0.000967
     5  C   -0.389832   0.014632   0.110186   0.027403   0.000905  -0.010201
     6  C    0.021589  -0.002915  -0.028716  -0.003308   0.000056  -0.002624
     7  H    0.000543  -0.000020  -0.001238  -0.000518   0.000000  -0.000035
     8  H   -0.000561   0.000001   0.000028   0.000017   0.000000   0.000003
     9  H   -0.000081   0.000124   0.000338   0.000800   0.000000   0.000102
    10  C    0.150854  -0.004622  -0.053406  -0.014185  -0.000955   0.004525
    11  H    0.000415  -0.000002   0.000087   0.000079   0.000000   0.000004
    12  H    0.005575   0.000144  -0.001943   0.001275   0.000006   0.001104
    13  H   -0.006993   0.000099  -0.000060   0.002684  -0.000005   0.000327
    14  N   -0.019795   0.005965  -0.042343  -0.027347  -0.001330   0.019021
    15  H    0.034398  -0.001066  -0.039034   0.004585  -0.000016   0.000325
    16  C   -1.985855  -0.036515   0.723465   0.350033  -0.004405  -0.070581
    17  H    0.011081  -0.003657  -0.048886   0.006239   0.000632   0.013647
    18  H    0.051819   0.004968  -0.047044  -0.016718  -0.000034  -0.001340
    19  C   15.534285   0.254749  -4.576796  -2.804740   0.111766  -1.287525
    20  H    0.254749   0.552954   0.062604   0.042123  -0.000516   0.023659
    21  C   -4.576796   0.062604  12.870271   1.192942  -0.085839  -2.376839
    22  C   -2.804740   0.042123   1.192942   9.429946   0.349501  -0.082048
    23  H    0.111766  -0.000516  -0.085839   0.349501   0.497195  -0.015447
    24  C   -1.287525   0.023659  -2.376839  -0.082048  -0.015447  13.735849
    25  C    1.425328  -0.011705   0.345422  -2.115377   0.026408  -2.448781
    26  C   -2.067577   0.024595   0.168032   0.860629  -0.018919   1.039793
    27  H    0.011352   0.000020   0.009042  -0.014564   0.000025  -0.059469
    28  C    1.814685  -0.046036  -1.314451  -1.156147   0.020753  -2.510732
    29  H    0.055521   0.000120  -0.108656  -0.013721  -0.000277  -0.003824
    30  O   -0.007554  -0.000001  -0.070256   0.037817  -0.000550  -0.323408
    31  H    0.000419   0.000001   0.001184  -0.039020  -0.000002   0.061319
    32  C   -0.567309   0.004754  -0.935688   0.224830  -0.028713   0.020999
    33  H    0.003805   0.000000   0.007033  -0.006096  -0.000015  -0.015041
    34  H   -0.000120  -0.000005  -0.002635  -0.009638  -0.000076  -0.055381
    35  O    0.023421   0.000226   0.031647  -0.025911   0.011545   0.087277
    36  H   -0.006384   0.000006  -0.024197  -0.024339  -0.001321  -0.108800
    37  O    0.213091  -0.065316  -0.054369   0.019319  -0.000101   0.016070
    38  H    0.054343  -0.003330  -0.017317  -0.006736   0.000107  -0.002874
    39  H   -0.014313   0.011055   0.020298  -0.003384   0.000022  -0.000651
              25         26         27         28         29         30
     1  C   -0.002191   0.012544   0.000004   0.016526  -0.000822   0.000006
     2  H    0.000003  -0.000058   0.000000  -0.000275   0.000000   0.000000
     3  H   -0.000017   0.000088   0.000000   0.000326   0.000004   0.000000
     4  H    0.000061  -0.000061   0.000000   0.004615  -0.000005   0.000000
[...]
 00000289,-0.00000814,0.00000027,0.00000103,0.00000147,0.00001614,0.000
 00422,-0.00005494,0.00005298,0.00001078,0.00001925,-0.00002425,-0.0000
 1055,-0.00000106,0.00000107,-0.00000505,0.00000669,0.00000528,0.000002
 68,-0.00000301,-0.00000063,0.00000750,0.00000304,-0.00002140,-0.000016
 49,0.00000569,-0.00000231,0.00000009,0.00000028,0.00001546,0.00000681,
 -0.00000689,0.00000058,0.00000101,0.00018609,-0.00001123,0.00002866,-0
 .00001861,-0.00003022,-0.00001272,-0.00008792,0.00001924,0.00000729,-0
 .00003436,-0.00000561,-0.00001869,-0.00005023,0.00002783,0.00000065,-0
 .00024976,-0.00040939,-0.00023829,0.00007032,0.00000447,0.00009783,0.0
 0053327,0.00056179,-0.00023271,-0.00143239,-0.00067532,-0.00030684,-0.
 00002660,-0.00027467,0.00074144,0.00030975,-0.00051241,-0.00838067,-0.
 00010897,-0.00025261,-0.00070995,-0.00058969,-0.00015147,-0.00017783,0
 .00011601,-0.00007402,-0.00003391,0.00040463,0.00019181,0.00024381,0.0
 0007836,-0.00007092,0.00005608,0.00062618,0.00042360,-0.00049435,0.000
 27628,0.00016723,-0.00000797,-0.03384070,-0.09575281,-0.05822598,-0.01
 007732,-0.01276227,-0.03794576,-0.00110175,0.01085677,0.00445077,-0.00
 118587,0.11321210,0.00005585,-0.00006447,0.00000827,0.00002793,-0.0000
 0462,0.00000076,-0.00003642,-0.00001291,0.00002148,-0.00001208,0.00005
 704,-0.00000306,-0.00026893,0.00029489,-0.00003484,0.00008657,-0.00009
 222,-0.00000937,-0.00001945,-0.00001163,0.00000807,0.00003121,0.000013
 86,0.00000199,-0.00001208,0.00001258,0.00000621,0.00005774,-0.00006008
 ,-0.00003534,0.00001353,-0.00000840,0.00000992,-0.00000366,0.00003556,
 -0.00002119,-0.00000300,0.00002761,0.00000721,0.00057430,-0.00021032,0
 .00016960,-0.00018095,0.00002965,-0.00009358,-0.00021025,0.00013969,-0
 .00025705,0.00001454,0.00002767,-0.00003090,-0.00009849,0.00004806,-0.
 00000671,-0.00085652,-0.00067015,-0.00047090,0.00004112,0.00006517,0.0
 0015371,0.00058313,-0.00028234,-0.00071931,-0.00156716,-0.00066566,-0.
 00044425,0.00094487,-0.00002433,-0.00111721,-0.00306526,-0.01705597,-0
 .03230028,0.00389595,0.00056753,-0.00129537,-0.00129765,-0.00103719,-0
 .00121999,0.00035931,0.00000326,-0.00033759,0.00077121,0.00023377,0.00
 027174,0.00009642,0.00003627,-0.00007799,0.00063238,-0.00019797,-0.000
 36714,0.00047334,0.00019549,0.00013821,-0.05277705,-0.06464405,-0.1767
 4658,-0.00370219,-0.01227935,-0.00592978,-0.00943263,-0.01450459,-0.02
 875104,-0.18485272,0.14871905,0.43450429,0.00000242,-0.00000154,-0.000
 00041,0.00000094,-0.00000048,0.00000093,-0.00000166,0.00000063,-0.0000
 0032,-0.00000100,0.00000236,0.00000111,-0.00001677,0.00000670,0.000004
 34,0.00000297,-0.00000084,0.00000103,-0.00000147,0.00000122,-0.0000004
 6,0.00000060,-0.00000107,0.00000029,-0.00000150,-0.00000093,-0.0000017
 0,0.00000220,-0.00000063,0.00000299,0.00000225,-0.00000024,-0.00000117
 ,-0.00000162,0.00000378,0.00000269,-0.00000401,-0.00000265,-0.00000335
 ,0.00001609,0.00000390,0.00000192,-0.00000218,-0.00000286,0.00000348,-
 0.00000906,-0.00000885,0.00000517,-0.00000317,0.00000189,0.00000352,-0
 .00000396,0.00000406,-0.00000087,0.00000296,-0.00001896,0.00000442,0.0
 0001841,0.00000704,0.00000183,0.00036399,0.00014476,0.00015284,-0.0007
 7955,-0.00035105,0.00010514,0.00059277,0.00048338,0.00025838,-0.000920
 57,-0.00106167,-0.00214697,0.00072075,-0.00024426,-0.00041957,-0.00025
 885,-0.00012093,-0.00011377,0.00005543,0.00000916,-0.00006504,-0.00000
 691,0.00008405,0.00017422,0.00001214,0.00002655,0.00003679,0.00001823,
 0.00001044,-0.00004405,0.00007128,0.00002680,0.00000275,0.00900059,-0.
 00490978,-0.01492447,0.00019686,-0.00075863,-0.00089405,0.00055463,-0.
 00031188,-0.00143119,-0.36903659,0.04596103,0.24910622,0.35941133,-0.0
 0000019,0.00000389,0.00000101,-0.00000063,0.00000136,-0.00000117,0.000
 00145,-0.00000166,0.00000100,-0.00000137,-0.00000372,-0.00000301,0.000
 01517,-0.00000559,-0.00000796,-0.00000396,0.00000550,0.00000429,-0.000
 00044,-0.00000165,0.00000298,-0.00000096,-0.00000110,-0.00000132,0.000
 00106,0.00000170,-0.00000246,0.00000054,0.00000501,0.00000460,-0.00000
 182,0.00000112,0.00000055,-0.00000031,-0.00000543,-0.00000572,0.000004
 45,0.00000268,0.00000111,-0.00003974,-0.00000275,0.00000342,-0.0000007
 3,0.00001432,-0.00000193,0.00003433,0.00000228,-0.00000890,0.00001398,
 0.00000120,0.00000333,0.00000420,-0.00000298,-0.00000011,0.00005057,0.
 00012241,-0.00001147,0.00000321,0.00001487,-0.00000521,0.00011536,0.00
 010729,0.00008553,-0.00090692,0.00010064,0.00026992,0.00059332,-0.0000
 9237,0.00015954,-0.00166618,-0.00205669,-0.00214909,0.00058342,0.00077
 436,-0.00049174,-0.00010395,-0.00011790,-0.00016052,0.00006937,-0.0000
 6761,0.00000284,-0.00013889,0.00000678,0.00006246,0.00000018,0.0000192
 3,0.00003418,0.00000298,-0.00005398,0.00015078,-0.00002680,0.00000037,
 -0.00000993,0.01606373,-0.00431229,-0.01236981,0.00064441,-0.00031499,
 -0.00026283,-0.00052036,0.00111537,0.00039387,0.02426275,-0.01459476,-
 0.03883661,-0.03898906,0.01936547,-0.00001582,0.00001542,-0.00000201,-
 0.00000698,0.00000121,0.00000020,0.00000880,0.00000282,-0.00000540,0.0
 0000293,-0.00001375,-0.00000038,0.00007612,-0.00007196,0.00000870,-0.0
 0002159,0.00002137,0.00000267,0.00000500,0.00000237,-0.00000309,-0.000
 00736,-0.00000247,-0.00000005,0.00000397,-0.00000310,0.00000005,-0.000
 01578,0.00001654,0.00000700,-0.00000479,0.00000171,-0.00000109,0.00000
 226,-0.00001057,0.00000352,0.00000331,-0.00000621,0.00000113,-0.000117
 43,0.00004607,-0.00002989,0.00004379,-0.00001273,0.00002006,0.00006591
 ,-0.00000891,0.00004495,0.00000721,-0.00001142,0.00000469,0.00000865,-
 0.00000690,0.00000372,0.00015340,0.00008231,0.00004672,0.00002100,0.00
 000440,-0.00001140,0.00008477,0.00004902,0.00010838,-0.00110761,-0.000
 32879,0.00048441,0.00043755,0.00029160,-0.00011936,-0.00322068,-0.0028
 9235,-0.00539844,0.00169548,-0.00005422,-0.00028770,-0.00021792,-0.000
 23089,-0.00033819,0.00010057,0.00003145,-0.00007280,-0.00018913,0.0000
 1048,0.00009278,-0.00000461,0.00001775,0.00004150,-0.00002482,0.000183
 83,0.00025565,-0.00009673,-0.00003640,-0.00002415,0.03015118,-0.003805
 50,-0.02210986,0.00017072,-0.00020915,0.00162781,0.00021487,0.00134126
 ,0.00095798,0.20173489,-0.04748103,-0.18496698,-0.22982619,0.05309938,
 0.20962215,-0.00041796,-0.00014116,0.00015261,-0.00003442,0.00012651,-
 0.00002896,0.00016109,0.00007669,-0.00017657,0.00006681,-0.00000143,-0
 .00002213,0.00291354,0.00026530,-0.00129305,-0.00004136,0.00000257,0.0
 0016515,0.00014760,0.00002934,-0.00009038,-0.00004055,0.00008454,-0.00
 003777,0.00005868,-0.00001903,0.00004199,-0.00114053,0.00053596,0.0001
 6692,-0.00004193,0.00019839,-0.00020235,0.00003134,-0.00013638,-0.0000
 0055,0.00006588,-0.00006666,0.00007433,-0.00501325,0.00527315,-0.00519
 621,0.00104045,-0.00024986,-0.00057520,0.00645493,0.01297283,-0.017824
 83,-0.00337049,0.00367573,-0.00116096,0.00115787,-0.00087775,-0.000238
 11,-0.10722575,0.00128900,0.02275080,-0.00320942,-0.00888399,0.0131300
 0,-0.02221365,-0.02460060,0.02841927,0.00070932,-0.00481850,-0.0030697
 5,0.00053986,-0.00065870,0.00013786,-0.00240786,0.00053857,-0.00176706
 ,0.00218889,0.00116631,0.00144799,-0.00144522,0.00063975,0.00061496,-0
 .00004767,-0.00008127,-0.00010217,0.00197853,0.00165315,0.00279334,-0.
 00014504,-0.00039085,-0.00027156,-0.00273516,-0.00136025,-0.00102304,0
 .00015890,0.00017058,0.00035167,-0.00008507,-0.00010691,-0.00115379,-0
 .00008263,0.00001192,0.00009426,-0.00022803,0.00005381,0.00021186,-0.0
 0019683,0.00028852,0.00084977,0.00001401,-0.00006298,-0.00017128,0.390
 55367,0.00011506,-0.00016490,0.00003826,0.00006647,0.00000418,0.000018
 75,-0.00007320,-0.00005348,-0.00002320,-0.00001348,0.00021594,0.000037
 95,-0.00114610,0.00016419,0.00048411,0.00004235,-0.00029239,0.00008579
 ,0.00008012,0.00002940,-0.00011390,0.00006841,0.00010917,-0.00000036,0
 .00000344,-0.00003074,0.00004277,0.00051211,-0.00050175,-0.00003349,0.
 00017442,0.00000685,0.00004507,0.00005438,0.00038902,0.00003070,-0.000
 10570,0.00000518,-0.00010675,0.00151350,-0.00189456,0.00360536,-0.0008
 3767,-0.00240152,-0.00035583,-0.00838148,-0.03006522,0.03675800,0.0053
 2283,-0.00325485,0.00112402,-0.00221935,0.00242779,-0.00050497,-0.0261
 1802,-0.10101174,0.05212784,0.00106454,0.01025531,0.00268865,-0.015994
 62,-0.00971744,0.01357119,0.00056605,-0.00313106,-0.00194429,0.0002423
 6,-0.00009541,0.00034742,-0.00112412,0.00032952,-0.00024682,0.00144171
 ,0.00031568,0.00052765,-0.00109667,0.00023393,0.00070969,-0.00004963,-
 0.00014898,-0.00004812,0.00090487,0.00207814,0.00066550,0.00000993,-0.
 00010922,0.00033329,-0.00171175,-0.00065170,-0.00058043,0.00014925,0.0
 0007021,0.00021939,-0.00008000,-0.00006963,-0.00079485,-0.00002766,0.0
 0002527,0.00006043,-0.00019481,0.00002595,0.00015430,-0.00014297,0.000
 32062,0.00049109,0.00001605,-0.00010272,-0.00008102,-0.18177903,0.3590
 2066,-0.00017841,0.00036005,-0.00032705,-0.00005321,-0.00002807,0.0001
 5050,-0.00013414,-0.00010592,0.00008195,-0.00001137,-0.00007082,-0.000
 07958,0.00197997,-0.00037085,-0.00056105,-0.00011927,0.00029106,-0.000
 01033,-0.00000914,-0.00007827,-0.00000540,-0.00008409,-0.00003564,-0.0
 0001434,0.00005401,0.00000840,0.00009273,-0.00070155,0.00048741,0.0000
 8990,-0.00013059,0.00006158,-0.00009578,0.00000020,-0.00028228,-0.0000
 2002,0.00009509,-0.00002154,0.00017589,-0.00187216,0.00400649,-0.00192
 195,0.00041019,0.00075369,-0.00203861,0.00157156,0.02013847,-0.0178883
 9,-0.00227698,0.00161706,0.00043030,-0.00048008,-0.00034143,0.00104722
 ,0.04824862,0.04201790,-0.13055940,0.01756214,0.02603150,-0.02764470,0
 .00481623,0.00354297,0.00593826,-0.00030189,0.00101210,0.00016632,-0.0
 0079633,0.00040399,0.00039704,-0.00019070,-0.00026499,0.00036921,-0.00
 111702,-0.00004839,0.00050112,0.00153738,0.00041554,0.00146412,0.00021
 907,0.00020310,0.00000792,0.00035720,-0.00360676,-0.00213607,-0.000973
 14,0.00152733,0.00103173,0.00060494,0.00040831,0.00034273,-0.00000199,
 0.00002457,-0.00012702,-0.00013672,-0.00009121,-0.00012217,0.00000196,
 0.00003635,0.00004701,0.00006243,0.00001082,0.00003177,0.00017778,0.00
 001999,0.00010999,-0.00000790,0.00003512,0.00001684,0.05504561,-0.2324
 6488,0.25476915,-0.00002463,-0.00001716,-0.00000730,0.00000560,0.00001
 858,0.00000684,0.00001349,0.00001509,-0.00001415,-0.00000110,0.0000110
 0,0.00001835,0.00040097,-0.00000528,-0.00023994,0.00002797,0.00003563,
 -0.00001425,-0.00001426,0.00000513,0.00001141,-0.00001002,-0.00001543,
 0.00000023,-0.00000652,0.00000365,-0.00000731,-0.00020791,0.00002166,0
 .00002152,0.00003125,0.00006268,-0.00004547,0.00000831,0.00004290,0.00
 001803,-0.00000553,-0.00001022,0.00000407,-0.00078946,0.00098801,-0.00
 096691,0.00193135,0.00000517,0.00098734,-0.00223985,-0.00310230,0.0029
 4688,0.00106713,-0.00075303,0.00034561,0.00004670,0.00001196,-0.000072
 93,0.01288550,-0.01655745,0.01004142,-0.00028738,-0.00030443,0.0010125
 8,0.00159307,0.00056409,0.00051254,-0.00094869,-0.00007010,0.00042809,
 0.00008338,-0.00013405,0.00004957,0.00009015,0.00032018,0.00034588,-0.
 00038946,-0.00036725,-0.00029339,-0.00005236,0.00007009,-0.00020646,0.
 00001600,-0.00002074,0.00001578,-0.00023504,-0.00025515,-0.00096245,0.
 00011057,-0.00014606,0.00011975,0.00046610,0.00023356,0.00016316,-0.00
 003587,-0.00006710,-0.00005494,-0.00002107,0.00007689,0.00016077,0.000
 02305,-0.00000144,-0.00004076,-0.00001413,-0.00001875,-0.00002093,0.00
 002271,-0.00002649,-0.00021037,-0.00000505,-0.00000199,0.00004404,-0.2
 5783386,0.22865746,-0.12382405,0.24439376,-0.00005582,0.00000908,-0.00
 000670,-0.00001098,0.00002211,0.00000089,0.00004850,0.00001539,-0.0000
 1198,0.00000761,-0.00002919,0.00001588,0.00053672,-0.00012608,-0.00021
 409,-0.00002997,0.00006693,-0.00001814,0.00000775,0.00001630,0.0000076
 3,-0.00002322,-0.00001806,-0.00000235,0.00000371,0.00000338,-0.0000074
 8,-0.00015954,0.00003202,0.00001119,0.00000884,0.00006309,-0.00004320,
 0.00000543,0.00002054,0.00001399,0.00000483,-0.00000920,-0.00000093,-0
 .00196399,0.00164443,-0.00111604,0.00163008,-0.00087687,0.00056843,-0.
 00240154,-0.00262149,0.00453116,0.00101855,-0.00059248,0.00034650,-0.0
 0020435,0.00035102,-0.00003409,0.01530773,-0.01626541,0.00695708,0.000
 36181,0.00118811,-0.00093541,0.00058728,0.00139744,-0.00146908,-0.0005
 8235,0.00034563,0.00045641,-0.00007191,0.00009167,-0.00013227,0.000475
 86,0.00008798,0.00046236,-0.00048557,-0.00045190,-0.00057443,-0.000182
 09,-0.00012860,-0.00027168,0.00005302,0.00004566,0.00005469,-0.0002300
 5,0.00012955,-0.00035870,0.00003734,-0.00060247,-0.00026039,0.00082451
 ,0.00035348,0.00025333,-0.00009951,-0.00004707,-0.00009424,0.00001387,
 0.00017074,0.00036135,0.00003933,-0.00002583,-0.00006875,0.00007413,-0
 .00002206,-0.00007879,0.00008126,-0.00019395,-0.00032716,-0.00000670,0
 .00005638,0.00004768,0.19480308,-0.22119780,0.13448491,-0.20951011,0.2
 3707646,0.00012455,-0.00004410,-0.00000556,0.00001980,-0.00002252,0.00
 001035,-0.00004258,-0.00000826,0.00005957,-0.00000950,0.00002581,0.000
 00190,-0.00035831,0.00022490,-0.00003406,0.00005193,-0.00004762,-0.000
 00561,-0.00003371,0.00000033,0.00002929,0.00001802,-0.00001318,0.00000
 773,-0.00001796,0.00000960,-0.00002929,0.00004936,0.00001634,-0.000010
 37,-0.00000051,-0.00003336,-0.00000149,-0.00002065,-0.00001861,0.00000
 102,-0.00000364,0.00000114,-0.00002163,0.00040702,0.00014616,0.0007345
 7,-0.00077413,0.00009459,-0.00118828,0.00200722,0.00161901,-0.00351242
 ,-0.00066218,0.00066836,0.00044345,0.00007637,0.00005894,0.00015450,-0
 .01785783,0.01893210,-0.01185749,-0.00041310,0.00020471,-0.00059670,0.
 00032330,-0.00088087,0.00186276,-0.00005588,-0.00037042,0.00001157,0.0
 0011286,-0.00004510,-0.00018795,0.00004034,0.00007803,-0.00012057,0.00
 024371,-0.00002591,-0.00010421,-0.00055277,0.00003789,-0.00022970,-0.0
 0003639,-0.00004617,-0.00000874,0.00001564,0.00041917,0.00039573,0.000
 23612,-0.00060447,-0.00002300,-0.00024101,-0.00013094,-0.00013261,-0.0
 0000542,-0.00001468,0.00005066,0.00004505,0.00008149,0.00007159,0.0000
 0178,-0.00001784,-0.00002441,-0.00001545,-0.00000103,-0.00001307,-0.00
 004727,-0.00007705,-0.00005827,0.00000414,0.00001141,-0.00000569,-0.09
 234179,0.12242306,-0.08343169,0.10982705,-0.14266285,0.09768326,-0.005
 79146,0.00289708,-0.00144561,0.00006813,0.00096891,0.00155233,0.000176
 37,-0.00023649,-0.00036473,0.00007663,-0.00002319,-0.00019313,-0.00218
 635,0.01372027,0.02531322,0.00107582,0.00084248,0.00244824,-0.00016821
 ,-0.00013666,-0.00003331,0.00035130,-0.00033039,-0.00060058,-0.0008394
 7,-0.00074712,-0.00166268,0.00059164,-0.00067072,0.00034743,-0.0000736
 0,-0.00027044,-0.00001146,-0.00004912,-0.00023045,-0.00013292,0.000316
 38,0.00028452,-0.00067406,-0.05438064,0.00914737,0.01584712,-0.0000904
 5,0.00199717,0.00328113,0.00070754,-0.01768115,-0.02958637,0.00124754,
 -0.00000628,0.00067277,-0.00559249,-0.00188796,0.00004240,0.00151243,-
 0.00116107,-0.00207298,-0.00065108,0.00109278,0.00097856,-0.00047164,0
 .00018595,0.00071019,0.00003043,0.00000126,-0.00004517,-0.00008562,0.0
 0001535,0.00004548,-0.00005218,0.00000458,0.00002907,-0.00018986,-0.00
 005311,0.00004806,0.00014834,0.00016988,0.00008128,0.00004107,0.000014
 80,0.00001440,0.00015325,0.00004974,-0.00019183,-0.00001804,-0.0000756
 4,0.00011956,0.00016978,0.00007337,0.00006810,-0.00001844,-0.00001550,
 -0.00002009,-0.00002127,-0.00001454,-0.00000082,0.00000656,0.00000752,
 -0.00000158,0.00001015,-0.00000192,0.00000216,0.00004301,0.00000904,-0
 .00000857,-0.00000690,0.00000277,0.00001232,-0.00028466,0.00009094,0.0
 0065633,-0.00009488,0.00008644,-0.00011417,0.06433997,0.00300426,-0.00
 142829,0.00176398,-0.00000403,-0.00019879,-0.00098991,-0.00001409,0.00
 023211,-0.00001161,-0.00017209,0.00006232,0.00005414,0.00367752,-0.010
 26941,-0.01819816,-0.00125321,0.00134362,0.00086545,-0.00010544,-0.000
 02291,0.00034691,-0.00035400,-0.00047560,0.00003698,0.00025917,0.00062
 271,-0.00023072,-0.00114193,-0.00010265,-0.00112817,-0.00011054,0.0005
 2298,0.00029407,0.00008153,-0.00008753,0.00008439,0.00025725,-0.000244
 32,0.00128567,0.00859081,-0.14229606,-0.15035908,-0.00195744,0.0164967
 7,0.02338013,-0.00098244,-0.00970739,-0.01534827,0.00059883,-0.0000213
 2,0.00031397,-0.00294453,-0.00067449,0.00015522,-0.00000665,0.00200792
 ,0.00118444,-0.00010417,0.00021028,-0.00048452,0.00017165,-0.00032380,
 0.00002931,0.00000354,-0.00000086,0.00006756,0.00000095,0.00003005,-0.
 00000996,-0.00000279,-0.00001064,-0.00000479,-0.00005111,0.00001006,0.
 00002136,0.00005876,0.00002537,-0.00002689,-0.00000444,0.00001258,-0.0
 0000598,-0.00002290,-0.00003450,-0.00001636,-0.00000607,-0.00002377,0.
 00002343,0.00003812,0.00000561,0.00001177,-0.00000278,0.00000266,-0.00
 000779,-0.00001007,0.00001974,0.00000958,-0.00000528,-0.00000293,-0.00
 000239,0.00000436,-0.00000045,0.00000075,0.00000926,-0.00003652,-0.000
 00814,-0.00000085,0.00001596,0.00000068,0.00037967,-0.00113186,-0.0000
 8765,0.00024077,0.00002108,0.00001192,-0.00811960,0.14545227,-0.000517
 96,0.00056606,0.00086898,-0.00013312,-0.00006472,0.00034353,-0.0000576
 2,0.00002611,0.00018243,0.00003983,-0.00011115,-0.00005154,0.00310521,
 -0.00054475,0.00188462,-0.00046644,0.00143161,0.00137144,0.00026120,-0
 .00005189,-0.00041025,-0.00023389,-0.00000931,-0.00006591,0.00005439,-
 0.00016516,-0.00018034,-0.00074653,0.00064765,0.00214042,0.00009444,0.
 00005061,-0.00041131,0.00005389,-0.00004010,-0.00018214,0.00002478,-0.
 00032853,-0.00051493,0.01476971,-0.14246824,-0.31539898,0.00149545,-0.
 01620349,-0.02363420,-0.00251008,-0.00191866,-0.00156064,0.00053434,0.
 00070151,0.00105064,0.00015681,0.00039428,0.00148198,-0.00075521,0.000
 24610,0.00044108,-0.00044741,0.00008151,-0.00011815,-0.00002474,-0.000
 09975,0.00015380,-0.00004652,0.00006212,0.00011331,-0.00001146,-0.0000
 2576,0.00002971,0.00002755,0.00003786,0.00003251,-0.00016040,-0.000062
 52,-0.00002326,0.00008200,0.00002963,-0.00002554,0.00001809,0.00001570
 ,0.00000691,0.00011164,-0.00003197,-0.00006007,-0.00000061,-0.00003343
 ,-0.00003595,0.00018251,0.00007513,0.00004846,-0.00001938,-0.00001673,
 -0.00001699,-0.00000195,0.00004186,0.00010333,0.00001093,-0.00000431,-
 0.00001598,0.00000525,-0.00000643,-0.00001857,0.00000839,-0.00002596,-
 0.00011673,0.00000727,0.00000248,0.00002555,0.00029910,0.00070866,-0.0
 0027816,-0.00009935,0.00011526,0.00008485,-0.01511011,0.15697870,0.332
 75612\\-0.00000039,-0.00000607,0.00000428,-0.00000068,-0.00000667,0.00
 000665,0.00000010,-0.00000965,0.00000093,-0.00000079,-0.00000668,0.000
 00755,-0.00000021,0.00000021,0.00000139,0.00000035,0.00000097,-0.00000
 295,0.00000085,-0.00000252,-0.00000640,0.00000004,0.00000062,-0.000000
 50,0.00000052,0.00000540,-0.00000513,-0.00000086,0.00000523,0.00000606
 ,-0.00000119,0.00000514,0.00000860,-0.00000126,0.00000469,0.00000925,-
 0.00000071,0.00000969,0.00000398,0.00000035,0.00000074,-0.00000253,0.0
 0000077,-0.00000261,-0.00000571,-0.00000005,0.00000041,0.00000031,-0.0
 0000046,0.00000449,0.00000291,-0.00000033,-0.00000350,0.00000324,0.000
 00061,-0.00000032,-0.00000469,0.00000082,0.00000385,-0.00000732,0.0000
 0029,-0.00000152,-0.00000211,0.00000027,0.00000291,-0.00000267,0.00000
 045,0.00000717,-0.00000485,0.00000005,0.00000201,-0.00000042,-0.000000
 29,-0.00000350,0.00000246,-0.00000022,-0.00000798,0.00000294,-0.000000
 35,-0.00001223,0.00000508,0.00000004,-0.00000701,0.00000060,0.00000013
 ,-0.00001055,0.00000099,-0.00000044,-0.00000417,0.00000457,-0.00000061
 ,-0.00000808,0.00000640,-0.00000006,0.00000676,-0.00000087,-0.00000062
 ,0.00000785,0.00000360,0.00000033,0.00000493,-0.00000343,0.00000018,0.
 00001196,-0.00000371,0.00000021,0.00001487,-0.00000429,0.00000114,-0.0
 0000513,-0.00000825,0.00000153,-0.00000639,-0.00001115,0.00000050,0.00
 000471,-0.00000486\\\@


 Everywhere is walking distance if you have the time.
                                    -- Steven Wright
 Job cpu time:       0 days  7 hours 28 minutes 12.9 seconds.
 File lengths (MBytes):  RWF=   1692 Int=      0 D2E=      0 Chk=     21 Scr=      2
 Normal termination of Gaussian 09 at Mon Aug 22 01:53:00 2022.
