 Entering Gaussian System, Link 0=g09
 Initial command:
 /home/software/gaussian//09.d01/l1.exe "/home/tntech.edu/jbthorn42/tmp/tmp.xGhOmSvXl5/Gau-793957.inp" -scrdir="/home/tntech.edu/jbthorn42/tmp/tmp.xGhOmSvXl5/"
 Default is to use a total of  16 processors:
                               16 via shared-memory
                                1 via Linda
 Entering Link 1 = /home/software/gaussian//09.d01/l1.exe PID=    793958.
  
 Copyright (c) 1988,1990,1992,1993,1995,1998,2003,2009,2013,
            Gaussian, Inc.  All Rights Reserved.
  
 This is part of the Gaussian(R) 09 program.  It is based on
 the Gaussian(R) 03 system (copyright 2003, Gaussian, Inc.),
 the Gaussian(R) 98 system (copyright 1998, Gaussian, Inc.),
 the Gaussian(R) 94 system (copyright 1995, Gaussian, Inc.),
 the Gaussian 92(TM) system (copyright 1992, Gaussian, Inc.),
 the Gaussian 90(TM) system (copyright 1990, Gaussian, Inc.),
 the Gaussian 88(TM) system (copyright 1988, Gaussian, Inc.),
 the Gaussian 86(TM) system (copyright 1986, Carnegie Mellon
 University), and the Gaussian 82(TM) system (copyright 1983,
 Carnegie Mellon University). Gaussian is a federally registered
 trademark of Gaussian, Inc.
  
 This software contains proprietary and confidential information,
 including trade secrets, belonging to Gaussian, Inc.
  
 This software is provided under written license and may be
 used, copied, transmitted, or stored only in accord with that
 written license.
  
 The following legend is applicable only to US Government
 contracts under FAR:
  
                    RESTRICTED RIGHTS LEGEND
  
 Use, reproduction and disclosure by the US Government is
 subject to restrictions as set forth in subparagraphs (a)
 and (c) of the Commercial Computer Software - Restricted
 Rights clause in FAR 52.227-19.
  
 Gaussian, Inc.
 340 Quinnipiac St., Bldg. 40, Wallingford CT 06492
  
  
 ---------------------------------------------------------------
 Warning -- This program may not be used in any manner that
 competes with the business of Gaussian, Inc. or will provide
 assistance to any competitor of Gaussian, Inc.  The licensee
 of this program is prohibited from giving any competitor of
 Gaussian, Inc. access to this program.  By using this program,
 the user acknowledges that Gaussian, Inc. is engaged in the
 business of creating and licensing software in the field of
 computational chemistry and represents and warrants to the
 licensee that it is not a competitor of Gaussian, Inc. and that
 it will not use this program in any manner prohibited above.
 ---------------------------------------------------------------
  

 Cite this work as:
 Gaussian 09, Revision D.01,
 M. J. Frisch, G. W. Trucks, H. B. Schlegel, G. E. Scuseria, 
 M. A. Robb, J. R. Cheeseman, G. Scalmani, V. Barone, B. Mennucci, 
 G. A. Petersson, H. Nakatsuji, M. Caricato, X. Li, H. P. Hratchian, 
 A. F. Izmaylov, J. Bloino, G. Zheng, J. L. Sonnenberg, M. Hada, 
 M. Ehara, K. Toyota, R. Fukuda, J. Hasegawa, M. Ishida, T. Nakajima, 
 Y. Honda, O. Kitao, H. Nakai, T. Vreven, J. A. Montgomery, Jr., 
 J. E. Peralta, F. Ogliaro, M. Bearpark, J. J. Heyd, E. Brothers, 
 K. N. Kudin, V. N. Staroverov, T. Keith, R. Kobayashi, J. Normand, 
 K. Raghavachari, A. Rendell, J. C. Burant, S. S. Iyengar, J. Tomasi, 
 M. Cossi, N. Rega, J. M. Millam, M. Klene, J. E. Knox, J. B. Cross, 
 V. Bakken, C. Adamo, J. Jaramillo, R. Gomperts, R. E. Stratmann, 
 O. Yazyev, A. J. Austin, R. Cammi, C. Pomelli, J. W. Ochterski, 
 R. L. Martin, K. Morokuma, V. G. Zakrzewski, G. A. Voth, 
 P. Salvador, J. J. Dannenberg, S. Dapprich, A. D. Daniels, 
 O. Farkas, J. B. Foresman, J. V. Ortiz, J. Cioslowski, 
 and D. J. Fox, Gaussian, Inc., Wallingford CT, 2013.
 
 ******************************************
 Gaussian 09:  ES64L-G09RevD.01 24-Apr-2013
                19-Aug-2022 
 ******************************************
 %chk=Albuterol.chk
 %nprocshared=16
 Will use up to   16 processors via shared memory.
 %mem=50MW
 ----------------------------------------------------------------------
 #p opt=verytight freq=(raman,savenormalmodes) b3lyp/6-311+g(d,p) nosym
 m guess=save scf=(xqc,tight)
 ----------------------------------------------------------------------
 1/7=1,14=-1,18=20,19=15,26=3,38=1/1,3;
 2/9=110,12=2,15=1,17=6,18=5,40=1/2;
 3/5=4,6=6,7=111,11=2,16=1,25=1,30=1,71=1,74=-5/1,2,3;
 4//1;
 5/5=2,8=3,13=1,32=2,38=5/2,8;
 6/7=2,8=2,9=2,10=2,28=1/1;
 7/30=1,92=1/1,2,3,16;
 1/7=1,14=-1,18=20,19=15,26=3/3(2);
 2/9=110,15=1/2;
 99//99;
 2/9=110,15=1/2;
 3/5=4,6=6,7=111,11=2,16=1,25=1,30=1,71=1,74=-5/1,2,3;
 4/5=5,16=3,69=1/1;
 5/5=2,8=3,13=1,32=2,38=5/2,8;
 7/30=1,92=1/1,2,3,16;
 1/7=1,14=-1,18=20,19=15,26=3/3(-5);
 2/9=110,15=1/2;
 6/7=2,8=2,9=2,10=2,19=2,28=1/1;
 99/9=1/99;
 Leave Link    1 at Fri Aug 19 08:49:52 2022, MaxMem=    52428800 cpu:         0.9
 (Enter /home/software/gaussian//09.d01/l101.exe)
 ------
 Alb FB
 ------
 Symbolic Z-matrix:
 Charge =  0 Multiplicity = 1
 C                     2.47407  -0.67319  -0.37643 
 H                     3.36544  -1.28473  -0.17989 
 H                     2.6912   -0.01818  -1.23218 
 H                     1.66248  -1.35449  -0.66297 
 C                     2.10408   0.16192   0.86275 
 C                     3.29283   1.04578   1.25152 
 H                     3.54882   1.73703   0.43506 
 H                     4.18047   0.43588   1.46654 
 H                     3.04807   1.64173   2.14005 
 C                     1.76116  -0.76815   2.03119 
 H                     2.64245  -1.35849   2.31583 
 H                     0.96396  -1.47576   1.76853 
 H                     1.43496  -0.18267   2.90045 
 N                     0.9757    1.07525   0.62189 
 H                     1.24872   1.76731  -0.07076 
 C                    -0.28157   0.48744   0.19828 
 H                    -0.67531  -0.15842   0.99383 
 H                    -0.21025  -0.12473  -0.72158 
 C                    -1.3094    1.5822   -0.06001 
 H                    -1.38176   2.19941   0.85039 
 C                    -2.66883   0.99687  -0.3784 
 C                    -3.65461   0.92287   0.60994 
 H                    -3.46204   1.32868   1.60268 
 C                    -4.89504   0.34048   0.36471 
 C                    -5.14678  -0.17532  -0.91212 
 C                    -4.18097  -0.10378  -1.91323 
 H                    -4.39365  -0.50766  -2.90518 
 C                    -2.94482   0.47936  -1.64389 
 H                    -2.18942   0.53824  -2.42686 
 O                    -6.37827  -0.73863  -1.11552 
 H                    -6.43953  -1.05716  -2.01946 
 C                    -5.97179   0.24565   1.41334 
 H                    -6.21862  -0.81657   1.58049 
 H                    -6.88583   0.7362    1.03857 
 O                    -5.52278   0.85534   2.61131 
 H                    -6.21664   0.7803    3.26827 
 O                    -0.7924    2.36992  -1.13325 
 H                    -1.41028   3.0835   -1.30968 
 
 NAtoms=     38 NQM=       38 NQMF=       0 NMMI=      0 NMMIF=      0
                NMic=       0 NMicF=      0.
                    Isotopes and Nuclear Properties:
 (Nuclear quadrupole moments (NQMom) in fm**2, nuclear magnetic moments (NMagM)
  in nuclear magnetons)

  Atom         1           2           3           4           5           6           7           8           9          10
 IAtWgt=          12           1           1           1          12          12           1           1           1          12
 AtmWgt=  12.0000000   1.0078250   1.0078250   1.0078250  12.0000000  12.0000000   1.0078250   1.0078250   1.0078250  12.0000000
 NucSpn=           0           1           1           1           0           0           1           1           1           0
 AtZEff=   0.0000000   0.0000000   0.0000000   0.0000000   0.0000000   0.0000000   0.0000000   0.0000000   0.0000000   0.0000000
 NQMom=    0.0000000   0.0000000   0.0000000   0.0000000   0.0000000   0.0000000   0.0000000   0.0000000   0.0000000   0.0000000
 NMagM=    0.0000000   2.7928460   2.7928460   2.7928460   0.0000000   0.0000000   2.7928460   2.7928460   2.7928460   0.0000000
 AtZNuc=   6.0000000   1.0000000   1.0000000   1.0000000   6.0000000   6.0000000   1.0000000   1.0000000   1.0000000   6.0000000

  Atom        11          12          13          14          15          16          17          18          19          20
 IAtWgt=           1           1           1          14           1          12           1           1          12           1
 AtmWgt=   1.0078250   1.0078250   1.0078250  14.0030740   1.0078250  12.0000000   1.0078250   1.0078250  12.0000000   1.0078250
 NucSpn=           1           1           1           2           1           0           1           1           0           1
 AtZEff=   0.0000000   0.0000000   0.0000000   0.0000000   0.0000000   0.0000000   0.0000000   0.0000000   0.0000000   0.0000000
 NQMom=    0.0000000   0.0000000   0.0000000   2.0440000   0.0000000   0.0000000   0.0000000   0.0000000   0.0000000   0.0000000
 NMagM=    2.7928460   2.7928460   2.7928460   0.4037610   2.7928460   0.0000000   2.7928460   2.7928460   0.0000000   2.7928460
 AtZNuc=   1.0000000   1.0000000   1.0000000   7.0000000   1.0000000   6.0000000   1.0000000   1.0000000   6.0000000   1.0000000

  Atom        21          22          23          24          25          26          27          28          29          30
 IAtWgt=          12          12           1          12          12          12           1          12           1          16
 AtmWgt=  12.0000000  12.0000000   1.0078250  12.0000000  12.0000000  12.0000000   1.0078250  12.0000000   1.0078250  15.9949146
 NucSpn=           0           0           1           0           0           0           1           0           1           0
 AtZEff=   0.0000000   0.0000000   0.0000000   0.0000000   0.0000000   0.0000000   0.0000000   0.0000000   0.0000000   0.0000000
 NQMom=    0.0000000   0.0000000   0.0000000   0.0000000   0.0000000   0.0000000   0.0000000   0.0000000   0.0000000   0.0000000
 NMagM=    0.0000000   0.0000000   2.7928460   0.0000000   0.0000000   0.0000000   2.7928460   0.0000000   2.7928460   0.0000000
 AtZNuc=   6.0000000   6.0000000   1.0000000   6.0000000   6.0000000   6.0000000   1.0000000   6.0000000   1.0000000   8.0000000

  Atom        31          32          33          34          35          36          37          38
 IAtWgt=           1          12           1           1          16           1          16           1
 AtmWgt=   1.0078250  12.0000000   1.0078250   1.0078250  15.9949146   1.0078250  15.9949146   1.0078250
 NucSpn=           1           0           1           1           0           1           0           1
 AtZEff=   0.0000000   0.0000000   0.0000000   0.0000000   0.0000000   0.0000000   0.0000000   0.0000000
 NQMom=    0.0000000   0.0000000   0.0000000   0.0000000   0.0000000   0.0000000   0.0000000   0.0000000
 NMagM=    2.7928460   0.0000000   2.7928460   2.7928460   0.0000000   2.7928460   0.0000000   2.7928460
 AtZNuc=   1.0000000   6.0000000   1.0000000   1.0000000   8.0000000   1.0000000   8.0000000   1.0000000
 Leave Link  101 at Fri Aug 19 08:49:52 2022, MaxMem=    52428800 cpu:         0.5
 (Enter /home/software/gaussian//09.d01/l103.exe)

 GradGradGradGradGradGradGradGradGradGradGradGradGradGradGradGradGradGrad
 Berny optimization.
 Initialization pass.
                           ----------------------------
                           !    Initial Parameters    !
                           ! (Angstroms and Degrees)  !
 --------------------------                            --------------------------
 ! Name  Definition              Value          Derivative Info.                !
 --------------------------------------------------------------------------------
 ! R1    R(1,2)                  1.0987         estimate D2E/DX2                !
 ! R2    R(1,3)                  1.0993         estimate D2E/DX2                !
 ! R3    R(1,4)                  1.0977         estimate D2E/DX2                !
 ! R4    R(1,5)                  1.5394         estimate D2E/DX2                !
 ! R5    R(5,6)                  1.5315         estimate D2E/DX2                !
 ! R6    R(5,10)                 1.5323         estimate D2E/DX2                !
 ! R7    R(5,14)                 1.4715         estimate D2E/DX2                !
 ! R8    R(6,7)                  1.1            estimate D2E/DX2                !
 ! R9    R(6,8)                  1.0982         estimate D2E/DX2                !
 ! R10   R(6,9)                  1.0975         estimate D2E/DX2                !
 ! R11   R(10,11)                1.0983         estimate D2E/DX2                !
 ! R12   R(10,12)                1.0978         estimate D2E/DX2                !
 ! R13   R(10,13)                1.0976         estimate D2E/DX2                !
 ! R14   R(14,15)                1.0165         estimate D2E/DX2                !
 ! R15   R(14,16)                1.4511         estimate D2E/DX2                !
 ! R16   R(16,17)                1.0978         estimate D2E/DX2                !
 ! R17   R(16,18)                1.1072         estimate D2E/DX2                !
 ! R18   R(16,19)                1.5237         estimate D2E/DX2                !
 ! R19   R(19,20)                1.1023         estimate D2E/DX2                !
 ! R20   R(19,21)                1.514          estimate D2E/DX2                !
 ! R21   R(19,37)                1.4282         estimate D2E/DX2                !
 ! R22   R(21,22)                1.3979         estimate D2E/DX2                !
 ! R23   R(21,28)                1.3948         estimate D2E/DX2                !
 ! R24   R(22,23)                1.0896         estimate D2E/DX2                !
 ! R25   R(22,24)                1.3921         estimate D2E/DX2                !
 ! R26   R(24,25)                1.3999         estimate D2E/DX2                !
 ! R27   R(24,32)                1.506          estimate D2E/DX2                !
 ! R28   R(25,26)                1.3929         estimate D2E/DX2                !
 ! R29   R(25,30)                1.3694         estimate D2E/DX2                !
 ! R30   R(26,27)                1.0919         estimate D2E/DX2                !
 ! R31   R(26,28)                1.3931         estimate D2E/DX2                !
 ! R32   R(28,29)                1.0896         estimate D2E/DX2                !
 ! R33   R(30,31)                0.9604         estimate D2E/DX2                !
 ! R34   R(32,33)                1.1033         estimate D2E/DX2                !
 ! R35   R(32,34)                1.103          estimate D2E/DX2                !
 ! R36   R(32,35)                1.4172         estimate D2E/DX2                !
 ! R37   R(35,36)                0.9585         estimate D2E/DX2                !
 ! R38   R(37,38)                0.9603         estimate D2E/DX2                !
 ! A1    A(2,1,3)              108.0985         estimate D2E/DX2                !
 ! A2    A(2,1,4)              107.5217         estimate D2E/DX2                !
 ! A3    A(2,1,5)              110.6675         estimate D2E/DX2                !
 ! A4    A(3,1,4)              108.2184         estimate D2E/DX2                !
 ! A5    A(3,1,5)              110.5393         estimate D2E/DX2                !
 ! A6    A(4,1,5)              111.6612         estimate D2E/DX2                !
 ! A7    A(1,5,6)              109.321          estimate D2E/DX2                !
 ! A8    A(1,5,10)             109.7751         estimate D2E/DX2                !
 ! A9    A(1,5,14)             112.907          estimate D2E/DX2                !
 ! A10   A(6,5,10)             109.2954         estimate D2E/DX2                !
 ! A11   A(6,5,14)             106.1738         estimate D2E/DX2                !
 ! A12   A(10,5,14)            109.265          estimate D2E/DX2                !
 ! A13   A(5,6,7)              110.7872         estimate D2E/DX2                !
 ! A14   A(5,6,8)              110.8894         estimate D2E/DX2                !
 ! A15   A(5,6,9)              110.2298         estimate D2E/DX2                !
 ! A16   A(7,6,8)              107.8312         estimate D2E/DX2                !
 ! A17   A(7,6,9)              108.1541         estimate D2E/DX2                !
 ! A18   A(8,6,9)              108.862          estimate D2E/DX2                !
 ! A19   A(5,10,11)            110.1401         estimate D2E/DX2                !
 ! A20   A(5,10,12)            111.796          estimate D2E/DX2                !
 ! A21   A(5,10,13)            110.2817         estimate D2E/DX2                !
 ! A22   A(11,10,12)           107.3522         estimate D2E/DX2                !
 ! A23   A(11,10,13)           108.6588         estimate D2E/DX2                !
 ! A24   A(12,10,13)           108.5105         estimate D2E/DX2                !
 ! A25   A(5,14,15)            109.1561         estimate D2E/DX2                !
 ! A26   A(5,14,16)            117.4352         estimate D2E/DX2                !
 ! A27   A(15,14,16)           108.0343         estimate D2E/DX2                !
 ! A28   A(14,16,17)           109.7267         estimate D2E/DX2                !
 ! A29   A(14,16,18)           114.2471         estimate D2E/DX2                !
 ! A30   A(14,16,19)           110.0537         estimate D2E/DX2                !
 ! A31   A(17,16,18)           107.4509         estimate D2E/DX2                !
 ! A32   A(17,16,19)           107.6745         estimate D2E/DX2                !
 ! A33   A(18,16,19)           107.4492         estimate D2E/DX2                !
 ! A34   A(16,19,20)           107.8542         estimate D2E/DX2                !
 ! A35   A(16,19,21)           111.3205         estimate D2E/DX2                !
 ! A36   A(16,19,37)           106.2295         estimate D2E/DX2                !
 ! A37   A(20,19,21)           109.3437         estimate D2E/DX2                !
 ! A38   A(20,19,37)           109.6083         estimate D2E/DX2                !
 ! A39   A(21,19,37)           112.3499         estimate D2E/DX2                !
 ! A40   A(19,21,22)           120.3311         estimate D2E/DX2                !
 ! A41   A(19,21,28)           120.7925         estimate D2E/DX2                !
 ! A42   A(22,21,28)           118.8365         estimate D2E/DX2                !
 ! A43   A(21,22,23)           119.9882         estimate D2E/DX2                !
 ! A44   A(21,22,24)           121.7323         estimate D2E/DX2                !
 ! A45   A(23,22,24)           118.2794         estimate D2E/DX2                !
 ! A46   A(22,24,25)           118.3627         estimate D2E/DX2                !
 ! A47   A(22,24,32)           122.7348         estimate D2E/DX2                !
 ! A48   A(25,24,32)           118.9025         estimate D2E/DX2                !
 ! A49   A(24,25,26)           120.7923         estimate D2E/DX2                !
 ! A50   A(24,25,30)           116.6642         estimate D2E/DX2                !
 ! A51   A(26,25,30)           122.5429         estimate D2E/DX2                !
 ! A52   A(25,26,27)           119.9251         estimate D2E/DX2                !
 ! A53   A(25,26,28)           119.856          estimate D2E/DX2                !
 ! A54   A(27,26,28)           120.2186         estimate D2E/DX2                !
 ! A55   A(21,28,26)           120.4182         estimate D2E/DX2                !
 ! A56   A(21,28,29)           119.654          estimate D2E/DX2                !
 ! A57   A(26,28,29)           119.9267         estimate D2E/DX2                !
 ! A58   A(25,30,31)           109.4875         estimate D2E/DX2                !
 ! A59   A(24,32,33)           109.031          estimate D2E/DX2                !
 ! A60   A(24,32,34)           109.1417         estimate D2E/DX2                !
 ! A61   A(24,32,35)           109.5713         estimate D2E/DX2                !
 ! A62   A(33,32,34)           107.1144         estimate D2E/DX2                !
 ! A63   A(33,32,35)           110.9171         estimate D2E/DX2                !
 ! A64   A(34,32,35)           111.0046         estimate D2E/DX2                !
 ! A65   A(32,35,36)           108.4426         estimate D2E/DX2                !
 ! A66   A(19,37,38)           108.3618         estimate D2E/DX2                !
 ! D1    D(2,1,5,6)             57.786          estimate D2E/DX2                !
 ! D2    D(2,1,5,10)           -62.0921         estimate D2E/DX2                !
 ! D3    D(2,1,5,14)           175.7295         estimate D2E/DX2                !
 ! D4    D(3,1,5,6)            -61.9424         estimate D2E/DX2                !
 ! D5    D(3,1,5,10)           178.1795         estimate D2E/DX2                !
 ! D6    D(3,1,5,14)            56.0011         estimate D2E/DX2                !
 ! D7    D(4,1,5,6)            177.5245         estimate D2E/DX2                !
 ! D8    D(4,1,5,10)            57.6464         estimate D2E/DX2                !
 ! D9    D(4,1,5,14)           -64.532          estimate D2E/DX2                !
 ! D10   D(1,5,6,7)             60.8368         estimate D2E/DX2                !
 ! D11   D(1,5,6,8)            -58.863          estimate D2E/DX2                !
 ! D12   D(1,5,6,9)           -179.4888         estimate D2E/DX2                !
 ! D13   D(10,5,6,7)          -178.9905         estimate D2E/DX2                !
 ! D14   D(10,5,6,8)            61.3097         estimate D2E/DX2                !
 ! D15   D(10,5,6,9)           -59.3161         estimate D2E/DX2                !
 ! D16   D(14,5,6,7)           -61.2466         estimate D2E/DX2                !
 ! D17   D(14,5,6,8)           179.0536         estimate D2E/DX2                !
 ! D18   D(14,5,6,9)            58.4279         estimate D2E/DX2                !
 ! D19   D(1,5,10,11)           63.6367         estimate D2E/DX2                !
 ! D20   D(1,5,10,12)          -55.6239         estimate D2E/DX2                !
 ! D21   D(1,5,10,13)         -176.4412         estimate D2E/DX2                !
 ! D22   D(6,5,10,11)          -56.257          estimate D2E/DX2                !
 ! D23   D(6,5,10,12)         -175.5177         estimate D2E/DX2                !
 ! D24   D(6,5,10,13)           63.6651         estimate D2E/DX2                !
 ! D25   D(14,5,10,11)        -172.0424         estimate D2E/DX2                !
 ! D26   D(14,5,10,12)          68.6969         estimate D2E/DX2                !
 ! D27   D(14,5,10,13)         -52.1204         estimate D2E/DX2                !
 ! D28   D(1,5,14,15)          -64.73           estimate D2E/DX2                !
 ! D29   D(1,5,14,16)           58.6094         estimate D2E/DX2                !
 ! D30   D(6,5,14,15)           55.0416         estimate D2E/DX2                !
 ! D31   D(6,5,14,16)          178.3811         estimate D2E/DX2                !
 ! D32   D(10,5,14,15)         172.8058         estimate D2E/DX2                !
 ! D33   D(10,5,14,16)         -63.8548         estimate D2E/DX2                !
 ! D34   D(5,14,16,17)          64.1507         estimate D2E/DX2                !
 ! D35   D(5,14,16,18)         -56.5741         estimate D2E/DX2                !
 ! D36   D(5,14,16,19)        -177.5389         estimate D2E/DX2                !
 ! D37   D(15,14,16,17)       -171.9422         estimate D2E/DX2                !
 ! D38   D(15,14,16,18)         67.333          estimate D2E/DX2                !
 ! D39   D(15,14,16,19)        -53.6318         estimate D2E/DX2                !
 ! D40   D(14,16,19,20)        -54.7392         estimate D2E/DX2                !
 ! D41   D(14,16,19,21)       -174.6915         estimate D2E/DX2                !
 ! D42   D(14,16,19,37)         62.7099         estimate D2E/DX2                !
 ! D43   D(17,16,19,20)         64.8276         estimate D2E/DX2                !
 ! D44   D(17,16,19,21)        -55.1247         estimate D2E/DX2                !
 ! D45   D(17,16,19,37)       -177.7233         estimate D2E/DX2                !
 ! D46   D(18,16,19,20)       -179.6993         estimate D2E/DX2                !
 ! D47   D(18,16,19,21)         60.3484         estimate D2E/DX2                !
 ! D48   D(18,16,19,37)        -62.2501         estimate D2E/DX2                !
 ! D49   D(16,19,21,22)         99.6082         estimate D2E/DX2                !
 ! D50   D(16,19,21,28)        -78.0688         estimate D2E/DX2                !
 ! D51   D(20,19,21,22)        -19.4584         estimate D2E/DX2                !
 ! D52   D(20,19,21,28)        162.8645         estimate D2E/DX2                !
 ! D53   D(37,19,21,22)       -141.3887         estimate D2E/DX2                !
 ! D54   D(37,19,21,28)         40.9342         estimate D2E/DX2                !
 ! D55   D(16,19,37,38)       -178.8119         estimate D2E/DX2                !
 ! D56   D(20,19,37,38)        -62.5371         estimate D2E/DX2                !
 ! D57   D(21,19,37,38)         59.2427         estimate D2E/DX2                !
 ! D58   D(19,21,22,23)          2.7841         estimate D2E/DX2                !
 ! D59   D(19,21,22,24)       -177.3069         estimate D2E/DX2                !
 ! D60   D(28,21,22,23)       -179.4938         estimate D2E/DX2                !
 ! D61   D(28,21,22,24)          0.4152         estimate D2E/DX2                !
 ! D62   D(19,21,28,26)        177.5272         estimate D2E/DX2                !
 ! D63   D(19,21,28,29)         -2.85           estimate D2E/DX2                !
 ! D64   D(22,21,28,26)         -0.184          estimate D2E/DX2                !
 ! D65   D(22,21,28,29)        179.4388         estimate D2E/DX2                !
 ! D66   D(21,22,24,25)         -0.2313         estimate D2E/DX2                !
 ! D67   D(21,22,24,32)        179.8462         estimate D2E/DX2                !
 ! D68   D(23,22,24,25)        179.6793         estimate D2E/DX2                !
 ! D69   D(23,22,24,32)         -0.2433         estimate D2E/DX2                !
 ! D70   D(22,24,25,26)         -0.1855         estimate D2E/DX2                !
 ! D71   D(22,24,25,30)       -179.9211         estimate D2E/DX2                !
 ! D72   D(32,24,25,26)        179.7401         estimate D2E/DX2                !
 ! D73   D(32,24,25,30)          0.0044         estimate D2E/DX2                !
 ! D74   D(22,24,32,33)       -120.1259         estimate D2E/DX2                !
 ! D75   D(22,24,32,34)        123.1792         estimate D2E/DX2                !
 ! D76   D(22,24,32,35)          1.4378         estimate D2E/DX2                !
 ! D77   D(25,24,32,33)         59.9519         estimate D2E/DX2                !
 ! D78   D(25,24,32,34)        -56.7429         estimate D2E/DX2                !
 ! D79   D(25,24,32,35)       -178.4843         estimate D2E/DX2                !
 ! D80   D(24,25,26,27)       -179.7941         estimate D2E/DX2                !
 ! D81   D(24,25,26,28)          0.4103         estimate D2E/DX2                !
 ! D82   D(30,25,26,27)         -0.0743         estimate D2E/DX2                !
 ! D83   D(30,25,26,28)       -179.8699         estimate D2E/DX2                !
 ! D84   D(24,25,30,31)       -179.9663         estimate D2E/DX2                !
 ! D85   D(26,25,30,31)          0.303          estimate D2E/DX2                !
 ! D86   D(25,26,28,21)         -0.221          estimate D2E/DX2                !
 ! D87   D(25,26,28,29)       -179.8428         estimate D2E/DX2                !
 ! D88   D(27,26,28,21)        179.984          estimate D2E/DX2                !
 ! D89   D(27,26,28,29)          0.3622         estimate D2E/DX2                !
 ! D90   D(24,32,35,36)       -179.5924         estimate D2E/DX2                !
 ! D91   D(33,32,35,36)        -59.1699         estimate D2E/DX2                !
 ! D92   D(34,32,35,36)         59.7913         estimate D2E/DX2                !
 --------------------------------------------------------------------------------
 Trust Radius=3.00D-01 FncErr=1.00D-07 GrdErr=1.00D-06
 Number of steps in this run=    206 maximum allowed number of steps=    228.
 GradGradGradGradGradGradGradGradGradGradGradGradGradGradGradGradGradGrad

 Leave Link  103 at Fri Aug 19 08:49:52 2022, MaxMem=    52428800 cpu:         0.1
 (Enter /home/software/gaussian//09.d01/l202.exe)
                          Input orientation:                          
 ---------------------------------------------------------------------
 Center     Atomic      Atomic             Coordinates (Angstroms)
 Number     Number       Type             X           Y           Z
 ---------------------------------------------------------------------
      1          6           0        2.474072   -0.673192   -0.376429
      2          1           0        3.365436   -1.284731   -0.179892
      3          1           0        2.691202   -0.018180   -1.232181
      4          1           0        1.662479   -1.354491   -0.662971
      5          6           0        2.104078    0.161922    0.862747
      6          6           0        3.292826    1.045776    1.251520
      7          1           0        3.548823    1.737033    0.435062
      8          1           0        4.180468    0.435879    1.466544
      9          1           0        3.048065    1.641727    2.140052
     10          6           0        1.761160   -0.768149    2.031190
     11          1           0        2.642450   -1.358487    2.315833
     12          1           0        0.963960   -1.475762    1.768529
     13          1           0        1.434961   -0.182669    2.900451
     14          7           0        0.975695    1.075247    0.621885
     15          1           0        1.248716    1.767310   -0.070764
     16          6           0       -0.281567    0.487440    0.198277
     17          1           0       -0.675311   -0.158415    0.993833
     18          1           0       -0.210249   -0.124729   -0.721583
     19          6           0       -1.309398    1.582195   -0.060008
     20          1           0       -1.381762    2.199409    0.850385
     21          6           0       -2.668834    0.996868   -0.378400
     22          6           0       -3.654606    0.922866    0.609944
     23          1           0       -3.462040    1.328675    1.602681
     24          6           0       -4.895039    0.340481    0.364705
     25          6           0       -5.146778   -0.175321   -0.912117
     26          6           0       -4.180967   -0.103777   -1.913226
     27          1           0       -4.393647   -0.507664   -2.905180
     28          6           0       -2.944819    0.479359   -1.643889
     29          1           0       -2.189425    0.538238   -2.426856
     30          8           0       -6.378271   -0.738628   -1.115522
     31          1           0       -6.439527   -1.057159   -2.019462
     32          6           0       -5.971787    0.245653    1.413341
     33          1           0       -6.218616   -0.816573    1.580494
     34          1           0       -6.885830    0.736199    1.038569
     35          8           0       -5.522778    0.855342    2.611308
     36          1           0       -6.216637    0.780299    3.268272
     37          8           0       -0.792402    2.369919   -1.133250
     38          1           0       -1.410283    3.083501   -1.309681
 ---------------------------------------------------------------------
                    Distance matrix (angstroms):
                    1          2          3          4          5
     1  C    0.000000
     2  H    1.098698   0.000000
     3  H    1.099317   1.779341   0.000000
     4  H    1.097706   1.771523   1.779887   0.000000
     5  C    1.539438   2.184245   2.183088   2.195981   0.000000
     6  C    2.505080   2.735960   2.768163   3.476290   1.531491
     7  H    2.760940   3.089151   2.568265   3.784375   2.179720
     8  H    2.745610   2.517047   3.115638   3.752403   2.179683
     9  H    3.467131   3.747936   3.775526   4.330601   2.170816
    10  C    2.512745   2.780187   3.475201   2.758992   1.532281
    11  H    2.783209   2.599383   3.793047   3.135862   2.170932
    12  H    2.743247   3.098374   3.756617   2.532751   2.191419
    13  H    3.472507   3.798656   4.322481   3.758046   2.172256
    14  N    2.509742   3.452999   2.752473   2.833047   1.471538
    15  H    2.747904   3.715827   2.572475   3.204302   2.044592
    16  C    3.044815   4.072374   3.337547   2.813143   2.497756
    17  H    3.472928   4.355899   4.038343   3.104973   2.800857
    18  H    2.761435   3.797967   2.947962   2.241174   2.819287
    19  C    4.416055   5.485227   4.465422   4.221344   3.810574
    20  H    4.962294   5.978009   5.083682   4.918115   4.037646
    21  C    5.407272   6.454263   5.521707   4.936612   5.001827
    22  C    6.409448   7.401237   6.674449   5.922673   5.814240
    23  H    6.569762   7.524752   6.907449   6.212347   5.735023
    24  C    7.475333   8.436430   7.760782   6.850554   7.019086
    25  C    7.655860   8.615378   7.846086   6.915092   7.472536
    26  C    6.853869   7.832452   6.906363   6.105185   6.875930
    27  H    7.320351   8.260411   7.296136   6.513162   7.540958
    28  C    5.683239   6.713763   5.672899   5.054938   5.645826
    29  H    5.236413   6.263269   5.055430   4.640138   5.421925
    30  O    8.883384   9.803747   9.098791   8.076989   8.756414
    31  H    9.071893   9.978632   9.223313   8.220157   9.098707
    32  C    8.682171   9.595009   9.061775   8.071775   8.095045
    33  H    8.911393   9.755623   9.377283   8.211830   8.410698
    34  H    9.570599  10.519375   9.871420   8.963248   9.009947
    35  O    8.672520   9.558821   9.110703   8.199523   7.855395
    36  H    9.535455  10.390876  10.012055   9.060489   8.683504
    37  O    4.528041   5.617203   4.224725   4.485402   4.153174
    38  H    5.483787   6.570035   5.142821   5.436531   5.060217
                    6          7          8          9         10
     6  C    0.000000
     7  H    1.099988   0.000000
     8  H    1.098234   1.776494   0.000000
     9  H    1.097522   1.779560   1.786062   0.000000
    10  C    2.498842   3.466886   2.760717   2.734132   0.000000
    11  H    2.708548   3.733772   2.511283   3.032607   1.098268
    12  H    3.471177   4.333786   3.753863   3.768323   1.097832
    13  H    2.771229   3.772507   3.158560   2.551222   1.097637
    14  N    2.401334   2.663428   3.375324   2.630674   2.449736
    15  H    2.539179   2.355264   3.568080   2.853267   3.333071
    16  C    3.767936   4.036018   4.639064   4.023595   3.018080
    17  H    4.154827   4.663503   4.914797   4.291603   2.717402
    18  H    4.187452   4.351391   4.937669   4.682513   3.446477
    19  C    4.815425   4.885835   5.812317   4.881730   4.396084
    20  H    4.831516   4.969603   5.867546   4.647324   4.480922
    21  C    6.180649   6.314176   7.115579   6.280237   5.342870
    22  C    6.978076   7.251403   7.896791   6.912582   5.848931
    23  H    6.769901   7.119150   7.695684   6.539743   5.644653
    24  C    8.265895   8.558862   9.142646   8.242451   6.950627
    25  C    8.797688   9.004747   9.645160   8.931565   7.532205
    26  C    8.197236   8.285692   9.034803   8.469637   7.163008
    27  H    8.875427   8.903859   9.670455   9.244097   7.894128
    28  C    6.900177   6.933337   7.774728   7.182198   6.099895
    29  H    6.621414   6.523433   7.466229   7.036024   6.098192
    30  O   10.115192  10.347966  10.933138  10.252837   8.726569
    31  H   10.480475  10.658299  11.276777  10.705136   9.151097
    32  C    9.300507   9.686241  10.154176   9.156138   7.823554
    33  H    9.697634  10.160501  10.474854   9.603526   7.992640
    34  H   10.185589  10.499899  11.078642  10.035712   8.832825
    35  O    8.921892   9.370559   9.779541   8.619735   7.485186
    36  H    9.724590  10.213062  10.557682   9.372814   8.220299
    37  O    4.912186   4.659011   5.935392   5.098427   5.136325
    38  H    5.729861   5.426770   6.780400   5.818611   6.004555
                   11         12         13         14         15
    11  H    0.000000
    12  H    1.769357   0.000000
    13  H    1.783916   1.781903   0.000000
    14  N    3.401557   2.796887   2.642942   0.000000
    15  H    4.172403   3.739198   3.558823   1.016491   0.000000
    16  C    4.054795   2.805564   3.270666   1.451092   2.013012
    17  H    3.767678   2.241153   2.844122   2.094299   2.922955
    18  H    4.345796   3.066711   3.978593   2.156690   2.476279
    19  C    5.468943   4.226441   4.405743   2.437955   2.564826
    20  H    5.567804   4.455590   4.220307   2.621747   2.820397
    21  C    6.404399   4.890848   5.383614   3.780120   4.004425
    22  C    6.911407   5.331687   5.689668   4.632823   5.021854
    23  H    6.707773   5.242313   5.286680   4.551887   5.018370
    24  C    7.969136   6.292641   6.839049   5.922123   6.322278
    25  C    8.514201   6.798392   7.606249   6.434420   6.736767
    26  C    8.125162   6.473634   7.397051   5.865837   6.031342
    27  H    8.802814   7.175286   8.233082   6.616315   6.711608
    28  C    7.090462   5.544876   6.346005   4.567192   4.660394
    29  H    7.031193   5.621502   6.483524   4.427323   4.345411
    30  O    9.671186   7.922719   8.802484   7.771071   8.095812
    31  H   10.068162   8.326808   9.326191   8.155329   8.419271
    32  C    8.808680   7.154999   7.566695   7.041458   7.526863
    33  H    8.908024   7.215212   7.792391   7.500402   8.072432
    34  H    9.839067   8.188090   8.575925   7.879858   8.274337
    35  O    8.465181   6.944213   7.040682   6.799729   7.340186
    36  H    9.163240   7.674634   7.720722   7.669420   8.237405
    37  O    6.131508   5.127806   5.267599   2.807640   2.378692
    38  H    7.021414   5.991601   6.040570   3.668368   3.215206
                   16         17         18         19         20
    16  C    0.000000
    17  H    1.097758   0.000000
    18  H    1.107240   1.777658   0.000000
    19  C    1.523692   2.131284   2.135275   0.000000
    20  H    2.136940   2.465560   3.040583   1.102273   0.000000
    21  C    2.508210   2.681760   2.724040   1.513951   2.147690
    22  C    3.425851   3.192607   3.838491   2.526569   2.617861
    23  H    3.577071   3.216829   4.253085   2.731790   2.377327
    24  C    4.618811   4.295440   4.831532   3.818253   4.004324
    25  C    5.034134   4.860756   4.940464   4.305861   4.787599
    26  C    4.473623   4.554514   4.145727   3.810883   4.558263
    27  H    5.246988   5.399102   4.734507   4.687761   5.523039
    28  C    3.238295   3.537655   2.948465   2.529729   3.409270
    29  H    3.245586   3.805125   2.695296   2.732446   3.761930
    30  O    6.356029   6.108173   6.211003   5.673958   6.120617
    31  H    6.724926   6.566116   6.431005   6.092936   6.665001
    32  C    5.823525   5.328407   6.155518   5.069021   5.020200
    33  H    6.233741   5.612983   6.471374   5.704889   5.746683
    34  H    6.662151   6.274781   6.957206   5.746231   5.698347
    35  O    5.781727   5.209785   6.347572   5.041509   4.696316
    36  H    6.688475   6.063048   7.267373   5.983434   5.588924
    37  O    2.361704   3.306156   2.594541   1.428160   2.076349
    38  H    3.207409   4.044302   3.475440   1.955960   2.334163
                   21         22         23         24         25
    21  C    0.000000
    22  C    1.397872   0.000000
    23  H    2.159619   1.089628   0.000000
    24  C    2.437014   1.392117   2.136024   0.000000
    25  C    2.792685   2.397762   3.380023   1.399892   0.000000
    26  C    2.419433   2.774426   3.863985   2.428216   1.392885
    27  H    3.409283   3.866354   4.955890   3.415098   2.156376
    28  C    1.394792   2.404217   3.395449   2.803051   2.410958
    29  H    2.153218   3.393648   4.299012   3.892591   3.398461
    30  O    4.161156   3.627140   4.490743   2.357016   1.369403
    31  H    4.596764   4.311619   5.260946   3.165927   1.917042
    32  C    3.831991   2.544286   2.740003   1.505993   2.503121
    33  H    4.441485   3.246808   3.493035   2.137469   2.788037
    34  H    4.456322   3.264869   3.520169   2.138676   2.767733
    35  O    4.135623   2.738628   2.342651   2.388800   3.690280
    36  H    5.092350   3.694731   3.265381   3.220367   4.419667
    37  O    2.444599   3.650329   3.961878   4.816027   5.048538
    38  H    2.608692   3.659274   3.971268   4.740385   4.973869
                   26         27         28         29         30
    26  C    0.000000
    27  H    1.091939   0.000000
    28  C    1.393073   2.159669   0.000000
    29  H    2.154585   2.486222   1.089552   0.000000
    30  O    2.422295   2.682341   3.681203   4.571260   0.000000
    31  H    2.453837   2.296098   3.836004   4.557919   0.960376
    32  C    3.794099   4.659145   4.308574   5.398053   2.743936
    33  H    4.106844   4.852547   4.774289   5.841981   2.701864
    34  H    4.090836   4.828181   4.774214   5.839913   2.659481
    35  O    4.815784   5.793476   4.989382   6.049371   4.142689
    36  H    5.636796   6.564575   5.909711   6.979363   4.642296
    37  O    4.267307   4.938541   2.909960   2.641996   6.392598
    38  H    4.266110   4.933816   3.041061   2.886781   6.271146
                   31         32         33         34         35
    31  H    0.000000
    32  C    3.701383   0.000000
    33  H    3.614743   1.103263   0.000000
    34  H    3.573076   1.102980   1.774812   0.000000
    35  O    5.093341   1.417200   2.083763   2.084614   0.000000
    36  H    5.602327   1.945910   2.323488   2.328377   0.958475
    37  O    6.664852   6.150094   6.852878   6.672009   6.220299
    38  H    6.553026   6.022919   6.832551   6.403571   6.103398
                   36         37         38
    36  H    0.000000
    37  O    7.163980   0.000000
    38  H    7.025911   0.960263   0.000000
 Symmetry turned off by external request.
 Stoichiometry    C13H21NO3
 Framework group  C1[X(C13H21NO3)]
 Deg. of freedom   108
 Full point group                 C1      NOp   1
 Rotational constants (GHZ):      0.8590107      0.1893075      0.1757709
 Leave Link  202 at Fri Aug 19 08:49:52 2022, MaxMem=    52428800 cpu:         0.4
 (Enter /home/software/gaussian//09.d01/l301.exe)
 Standard basis: 6-311+G(d,p) (5D, 7F)
 Ernie: Thresh=  0.10000D-02 Tol=  0.10000D-05 Strict=F.
   500 basis functions,   780 primitive gaussians,   517 cartesian basis functions
    65 alpha electrons       65 beta electrons
       nuclear repulsion energy      1227.8988325026 Hartrees.
 IExCor=  402 DFT=T Ex+Corr=B3LYP ExCW=0 ScaHFX=  0.200000
 ScaDFX=  0.800000  0.720000  1.000000  0.810000 ScalE2=  1.000000  1.000000
 IRadAn=      0 IRanWt=     -1 IRanGd=            0 ICorTp=0 IEmpDi=  4
 NAtoms=   38 NActive=   38 NUniq=   38 SFac= 1.00D+00 NAtFMM=   60 NAOKFM=F Big=F
 Integral buffers will be    131072 words long.
 Raffenetti 2 integral format.
 Two-electron integral symmetry is turned off.
 Leave Link  301 at Fri Aug 19 08:49:52 2022, MaxMem=    52428800 cpu:         0.6
 (Enter /home/software/gaussian//09.d01/l302.exe)
 NPDir=0 NMtPBC=     1 NCelOv=     1 NCel=       1 NClECP=     1 NCelD=      1
         NCelK=      1 NCelE2=     1 NClLst=     1 CellRange=     0.0.
 One-electron integrals computed using PRISM.
 PrsmSu:  requested number of processors reduced to:  13 ShMem   1 Linda.
 NBasis=   500 RedAO= T EigKep=  1.60D-06  NBF=   500
 NBsUse=   499 1.00D-06 EigRej=  8.25D-07 NBFU=   499
 Precomputing XC quadrature grid using
 IXCGrd= 4 IRadAn=           0 IRanWt=          -1 IRanGd=           0 AccXCQ= 0.00D+00.
 Generated NRdTot=       0 NPtTot=           0 NUsed=           0 NTot=          32
 NSgBfM=   510   510   510   510   510 MxSgAt=    38 MxSgA2=    38.
 Leave Link  302 at Fri Aug 19 08:49:53 2022, MaxMem=    52428800 cpu:        12.6
 (Enter /home/software/gaussian//09.d01/l303.exe)
 DipDrv:  MaxL=1.
 Leave Link  303 at Fri Aug 19 08:49:54 2022, MaxMem=    52428800 cpu:         1.4
 (Enter /home/software/gaussian//09.d01/l401.exe)
 ExpMin= 4.38D-02 ExpMax= 8.59D+03 ExpMxC= 1.30D+03 IAcc=2 IRadAn=         4 AccDes= 0.00D+00
 Harris functional with IExCor=  402 and IRadAn=       4 diagonalized for initial guess.
 HarFok:  IExCor=  402 AccDes= 0.00D+00 IRadAn=         4 IDoV= 1 UseB2=F ITyADJ=14
 ICtDFT=  3500011 ScaDFX=  1.000000  1.000000  1.000000  1.000000
 FoFCou: FMM=F IPFlag=           0 FMFlag=      100000 FMFlg1=           0
         NFxFlg=           0 DoJE=T BraDBF=F KetDBF=T FulRan=T
         wScrn=  0.000000 ICntrl=     500 IOpCl=  0 I1Cent=   200000004 NGrid=           0
         NMat0=    1 NMatS0=      1 NMatT0=    0 NMatD0=    1 NMtDS0=    0 NMtDT0=    0
 Symmetry not used in FoFCou.
 Harris En= -788.759438645947    
 JPrj=0 DoOrth=F DoCkMO=F.
 Leave Link  401 at Fri Aug 19 08:49:55 2022, MaxMem=    52428800 cpu:        19.4
 (Enter /home/software/gaussian//09.d01/l502.exe)
 Closed shell SCF:
 Using DIIS extrapolation, IDIIS=  1040.
 Two-electron integral symmetry not used.
 IVT=      819259 IEndB=      819259 NGot=    52428800 MDV=    51881572
 LenX=    51881572 LenY=    51613766
 Requested convergence on RMS density matrix=1.00D-08 within  64 cycles.
 Requested convergence on MAX density matrix=1.00D-06.
 Requested convergence on             energy=1.00D-06.
 No special actions if energy rises.
 Fock matrices will be formed incrementally for  20 cycles.

 Cycle   1  Pass 1  IDiag  1:
 FoFJK:  IHMeth= 1 ICntrl=       0 DoSepK=F KAlg= 0 I1Cent=   0 FoldK=F
 IRaf= 770000000 NMat=   1 IRICut=       1 DoRegI=T DoRafI=F ISym2E= 0.
 FoFCou: FMM=F IPFlag=           0 FMFlag=      100000 FMFlg1=           0
         NFxFlg=           0 DoJE=F BraDBF=F KetDBF=F FulRan=T
         wScrn=  0.000000 ICntrl=       0 IOpCl=  0 I1Cent=           0 NGrid=           0
         NMat0=    1 NMatS0=      1 NMatT0=    0 NMatD0=    1 NMtDS0=    0 NMtDT0=    0
 Symmetry not used in FoFCou.
 E= -788.129163469316    
 DIIS: error= 3.31D-02 at cycle   1 NSaved=   1.
 NSaved= 1 IEnMin= 1 EnMin= -788.129163469316     IErMin= 1 ErrMin= 3.31D-02
 ErrMax= 3.31D-02  0.00D+00 EMaxC= 1.00D-01 BMatC= 6.30D-01 BMatP= 6.30D-01
 IDIUse=3 WtCom= 6.69D-01 WtEn= 3.31D-01
 Coeff-Com:  0.100D+01
 Coeff-En:   0.100D+01
 Coeff:      0.100D+01
 Gap=     0.228 Goal=   None    Shift=    0.000
 GapD=    0.228 DampG=1.000 DampE=0.500 DampFc=0.5000 IDamp=-1.
 Damping current iteration by 5.00D-01
 RMSDP=3.81D-02 MaxDP=5.07D+00              OVMax= 2.21D-01

 Cycle   2  Pass 1  IDiag  1:
 RMSU=  1.57D-02    CP:  1.32D+00
 E= -788.337928772912     Delta-E=       -0.208765303595 Rises=F Damp=T
 DIIS: error= 7.21D-03 at cycle   2 NSaved=   2.
 NSaved= 2 IEnMin= 2 EnMin= -788.337928772912     IErMin= 2 ErrMin= 7.21D-03
 ErrMax= 7.21D-03  0.00D+00 EMaxC= 1.00D-01 BMatC= 4.16D-02 BMatP= 6.30D-01
 IDIUse=3 WtCom= 9.28D-01 WtEn= 7.21D-02
 Coeff-Com:  0.109D+00 0.891D+00
 Coeff-En:   0.222D+00 0.778D+00
 Coeff:      0.117D+00 0.883D+00
 Gap=     0.229 Goal=   None    Shift=    0.000
 RMSDP=1.22D-02 MaxDP=1.64D+00 DE=-2.09D-01 OVMax= 1.59D-01

 Cycle   3  Pass 1  IDiag  1:
 RMSU=  4.57D-03    CP:  1.10D+00  4.58D-01
 E= -788.653718705508     Delta-E=       -0.315789932596 Rises=F Damp=F
 DIIS: error= 6.49D-03 at cycle   3 NSaved=   3.
 NSaved= 3 IEnMin= 3 EnMin= -788.653718705508     IErMin= 3 ErrMin= 6.49D-03
 ErrMax= 6.49D-03  0.00D+00 EMaxC= 1.00D-01 BMatC= 2.41D-02 BMatP= 4.16D-02
 IDIUse=3 WtCom= 9.35D-01 WtEn= 6.49D-02
 Coeff-Com: -0.451D-02 0.418D+00 0.586D+00
 Coeff-En:   0.000D+00 0.000D+00 0.100D+01
 Coeff:     -0.422D-02 0.391D+00 0.613D+00
 Gap=     0.213 Goal=   None    Shift=    0.000
 RMSDP=3.11D-03 MaxDP=4.45D-01 DE=-3.16D-01 OVMax= 4.58D-02

 Cycle   4  Pass 1  IDiag  1:
 RMSU=  2.02D-03    CP:  1.14D+00  5.83D-01  9.95D-01
 E= -788.668361946161     Delta-E=       -0.014643240653 Rises=F Damp=F
 DIIS: error= 4.16D-03 at cycle   4 NSaved=   4.
 NSaved= 4 IEnMin= 4 EnMin= -788.668361946161     IErMin= 4 ErrMin= 4.16D-03
 ErrMax= 4.16D-03  0.00D+00 EMaxC= 1.00D-01 BMatC= 5.82D-03 BMatP= 2.41D-02
 IDIUse=3 WtCom= 9.58D-01 WtEn= 4.16D-02
 Coeff-Com: -0.193D-01 0.111D+00 0.361D+00 0.548D+00
 Coeff-En:   0.000D+00 0.000D+00 0.214D+00 0.786D+00
 Coeff:     -0.185D-01 0.106D+00 0.354D+00 0.558D+00
 Gap=     0.200 Goal=   None    Shift=    0.000
 RMSDP=1.61D-03 MaxDP=2.66D-01 DE=-1.46D-02 OVMax= 2.37D-02

 Cycle   5  Pass 1  IDiag  1:
 RMSU=  6.40D-04    CP:  1.10D+00  5.46D-01  9.82D-01  7.92D-01
 E= -788.673333732988     Delta-E=       -0.004971786827 Rises=F Damp=F
 DIIS: error= 1.62D-03 at cycle   5 NSaved=   5.
 NSaved= 5 IEnMin= 5 EnMin= -788.673333732988     IErMin= 5 ErrMin= 1.62D-03
 ErrMax= 1.62D-03  0.00D+00 EMaxC= 1.00D-01 BMatC= 2.95D-04 BMatP= 5.82D-03
 IDIUse=3 WtCom= 9.84D-01 WtEn= 1.62D-02
 Coeff-Com: -0.927D-02 0.356D-01 0.152D+00 0.290D+00 0.532D+00
 Coeff-En:   0.000D+00 0.000D+00 0.000D+00 0.000D+00 0.100D+01
 Coeff:     -0.912D-02 0.350D-01 0.150D+00 0.285D+00 0.540D+00
 Gap=     0.201 Goal=   None    Shift=    0.000
 RMSDP=3.12D-04 MaxDP=3.75D-02 DE=-4.97D-03 OVMax= 9.81D-03

 Cycle   6  Pass 1  IDiag  1:
 RMSU=  1.91D-04    CP:  1.10D+00  5.36D-01  9.90D-01  7.65D-01  7.58D-01
 E= -788.673564929708     Delta-E=       -0.000231196720 Rises=F Damp=F
 DIIS: error= 7.93D-04 at cycle   6 NSaved=   6.
 NSaved= 6 IEnMin= 6 EnMin= -788.673564929708     IErMin= 6 ErrMin= 7.93D-04
 ErrMax= 7.93D-04  0.00D+00 EMaxC= 1.00D-01 BMatC= 7.57D-05 BMatP= 2.95D-04
 IDIUse=3 WtCom= 9.92D-01 WtEn= 7.93D-03
 Coeff-Com: -0.293D-02 0.488D-02 0.404D-01 0.996D-01 0.363D+00 0.495D+00
 Coeff-En:   0.000D+00 0.000D+00 0.000D+00 0.000D+00 0.233D+00 0.767D+00
 Coeff:     -0.291D-02 0.484D-02 0.401D-01 0.988D-01 0.362D+00 0.497D+00
 Gap=     0.201 Goal=   None    Shift=    0.000
 RMSDP=1.81D-04 MaxDP=3.33D-02 DE=-2.31D-04 OVMax= 3.67D-03

 Cycle   7  Pass 1  IDiag  1:
 RMSU=  6.15D-05    CP:  1.10D+00  5.42D-01  9.93D-01  7.87D-01  7.87D-01
                    CP:  5.86D-01
 E= -788.673641797341     Delta-E=       -0.000076867633 Rises=F Damp=F
 DIIS: error= 4.01D-05 at cycle   7 NSaved=   7.
 NSaved= 7 IEnMin= 7 EnMin= -788.673641797341     IErMin= 7 ErrMin= 4.01D-05
 ErrMax= 4.01D-05  0.00D+00 EMaxC= 1.00D-01 BMatC= 1.51D-06 BMatP= 7.57D-05
 IDIUse=1 WtCom= 1.00D+00 WtEn= 0.00D+00
 Coeff-Com: -0.872D-03 0.708D-03 0.129D-01 0.353D-01 0.148D+00 0.233D+00
 Coeff-Com:  0.571D+00
 Coeff:     -0.872D-03 0.708D-03 0.129D-01 0.353D-01 0.148D+00 0.233D+00
 Coeff:      0.571D+00
 Gap=     0.201 Goal=   None    Shift=    0.000
 RMSDP=2.63D-05 MaxDP=5.03D-03 DE=-7.69D-05 OVMax= 4.26D-04

 Cycle   8  Pass 1  IDiag  1:
 RMSU=  1.35D-05    CP:  1.10D+00  5.41D-01  9.94D-01  7.85D-01  7.89D-01
                    CP:  5.97D-01  8.11D-01
 E= -788.673642952135     Delta-E=       -0.000001154793 Rises=F Damp=F
 DIIS: error= 1.92D-05 at cycle   8 NSaved=   8.
 NSaved= 8 IEnMin= 8 EnMin= -788.673642952135     IErMin= 8 ErrMin= 1.92D-05
 ErrMax= 1.92D-05  0.00D+00 EMaxC= 1.00D-01 BMatC= 2.09D-07 BMatP= 1.51D-06
 IDIUse=1 WtCom= 1.00D+00 WtEn= 0.00D+00
 Coeff-Com: -0.735D-05-0.357D-03 0.113D-02 0.466D-02 0.266D-01 0.510D-01
 Coeff-Com:  0.298D+00 0.619D+00
 Coeff:     -0.735D-05-0.357D-03 0.113D-02 0.466D-02 0.266D-01 0.510D-01
 Coeff:      0.298D+00 0.619D+00
 Gap=     0.201 Goal=   None    Shift=    0.000
 RMSDP=7.44D-06 MaxDP=7.50D-04 DE=-1.15D-06 OVMax= 1.43D-04

 Cycle   9  Pass 1  IDiag  1:
 RMSU=  4.86D-06    CP:  1.10D+00  5.41D-01  9.94D-01  7.87D-01  7.92D-01
                    CP:  5.95D-01  8.62D-01  8.60D-01
 E= -788.673643140606     Delta-E=       -0.000000188471 Rises=F Damp=F
 DIIS: error= 9.08D-06 at cycle   9 NSaved=   9.
 NSaved= 9 IEnMin= 9 EnMin= -788.673643140606     IErMin= 9 ErrMin= 9.08D-06
 ErrMax= 9.08D-06  0.00D+00 EMaxC= 1.00D-01 BMatC= 1.47D-08 BMatP= 2.09D-07
 IDIUse=1 WtCom= 1.00D+00 WtEn= 0.00D+00
 Coeff-Com:  0.467D-04-0.218D-03-0.139D-03 0.374D-03 0.489D-02 0.119D-01
 Coeff-Com:  0.113D+00 0.305D+00 0.565D+00
 Coeff:      0.467D-04-0.218D-03-0.139D-03 0.374D-03 0.489D-02 0.119D-01
 Coeff:      0.113D+00 0.305D+00 0.565D+00
 Gap=     0.201 Goal=   None    Shift=    0.000
 RMSDP=1.96D-06 MaxDP=2.14D-04 DE=-1.88D-07 OVMax= 7.04D-05

 Cycle  10  Pass 1  IDiag  1:
 RMSU=  9.66D-07    CP:  1.10D+00  5.41D-01  9.94D-01  7.86D-01  7.91D-01
                    CP:  5.96D-01  8.71D-01  8.97D-01  8.46D-01
 E= -788.673643152296     Delta-E=       -0.000000011690 Rises=F Damp=F
 DIIS: error= 4.13D-06 at cycle  10 NSaved=  10.
 NSaved=10 IEnMin=10 EnMin= -788.673643152296     IErMin=10 ErrMin= 4.13D-06
 ErrMax= 4.13D-06  0.00D+00 EMaxC= 1.00D-01 BMatC= 3.71D-09 BMatP= 1.47D-08
 IDIUse=1 WtCom= 1.00D+00 WtEn= 0.00D+00
 Coeff-Com:  0.267D-04-0.835D-04-0.203D-03-0.306D-03-0.175D-03 0.873D-03
 Coeff-Com:  0.317D-01 0.109D+00 0.360D+00 0.500D+00
 Coeff:      0.267D-04-0.835D-04-0.203D-03-0.306D-03-0.175D-03 0.873D-03
 Coeff:      0.317D-01 0.109D+00 0.360D+00 0.500D+00
 Gap=     0.201 Goal=   None    Shift=    0.000
 RMSDP=9.18D-07 MaxDP=8.23D-05 DE=-1.17D-08 OVMax= 3.14D-05

 Cycle  11  Pass 1  IDiag  1:
 RMSU=  4.18D-07    CP:  1.10D+00  5.41D-01  9.94D-01  7.86D-01  7.91D-01
                    CP:  5.97D-01  8.74D-01  8.92D-01  8.42D-01  7.86D-01
 E= -788.673643156184     Delta-E=       -0.000000003888 Rises=F Damp=F
 DIIS: error= 4.88D-07 at cycle  11 NSaved=  11.
 NSaved=11 IEnMin=11 EnMin= -788.673643156184     IErMin=11 ErrMin= 4.88D-07
 ErrMax= 4.88D-07  0.00D+00 EMaxC= 1.00D-01 BMatC= 1.47D-10 BMatP= 3.71D-09
 IDIUse=1 WtCom= 1.00D+00 WtEn= 0.00D+00
 Coeff-Com:  0.658D-05-0.183D-04-0.763D-04-0.153D-03-0.367D-03-0.503D-03
 Coeff-Com:  0.584D-02 0.247D-01 0.119D+00 0.234D+00 0.618D+00
 Coeff:      0.658D-05-0.183D-04-0.763D-04-0.153D-03-0.367D-03-0.503D-03
 Coeff:      0.584D-02 0.247D-01 0.119D+00 0.234D+00 0.618D+00
 Gap=     0.201 Goal=   None    Shift=    0.000
 RMSDP=4.23D-07 MaxDP=4.99D-05 DE=-3.89D-09 OVMax= 3.77D-06

 Cycle  12  Pass 1  IDiag  1:
 RMSU=  1.47D-07    CP:  1.10D+00  5.41D-01  9.94D-01  7.86D-01  7.91D-01
                    CP:  5.96D-01  8.74D-01  8.97D-01  8.64D-01  7.77D-01
                    CP:  7.00D-01
 E= -788.673643156401     Delta-E=       -0.000000000217 Rises=F Damp=F
 DIIS: error= 1.94D-07 at cycle  12 NSaved=  12.
 NSaved=12 IEnMin=12 EnMin= -788.673643156401     IErMin=12 ErrMin= 1.94D-07
 ErrMax= 1.94D-07  0.00D+00 EMaxC= 1.00D-01 BMatC= 1.87D-11 BMatP= 1.47D-10
 IDIUse=1 WtCom= 1.00D+00 WtEn= 0.00D+00
 Coeff-Com:  0.325D-06-0.106D-05-0.212D-04-0.489D-04-0.164D-03-0.372D-03
 Coeff-Com: -0.188D-03 0.123D-02 0.239D-01 0.718D-01 0.320D+00 0.584D+00
 Coeff:      0.325D-06-0.106D-05-0.212D-04-0.489D-04-0.164D-03-0.372D-03
 Coeff:     -0.188D-03 0.123D-02 0.239D-01 0.718D-01 0.320D+00 0.584D+00
 Gap=     0.201 Goal=   None    Shift=    0.000
 RMSDP=9.43D-08 MaxDP=1.10D-05 DE=-2.17D-10 OVMax= 7.89D-07

 Cycle  13  Pass 1  IDiag  1:
 RMSU=  3.22D-08    CP:  1.10D+00  5.41D-01  9.94D-01  7.86D-01  7.91D-01
                    CP:  5.97D-01  8.74D-01  8.98D-01  8.63D-01  7.87D-01
                    CP:  7.59D-01  7.91D-01
 E= -788.673643156410     Delta-E=       -0.000000000009 Rises=F Damp=F
 DIIS: error= 4.59D-08 at cycle  13 NSaved=  13.
 NSaved=13 IEnMin=13 EnMin= -788.673643156410     IErMin=13 ErrMin= 4.59D-08
 ErrMax= 4.59D-08  0.00D+00 EMaxC= 1.00D-01 BMatC= 1.44D-12 BMatP= 1.87D-11
 IDIUse=1 WtCom= 1.00D+00 WtEn= 0.00D+00
 Coeff-Com: -0.337D-06 0.755D-06-0.562D-05-0.133D-04-0.544D-04-0.150D-03
 Coeff-Com: -0.444D-03-0.112D-02 0.293D-02 0.183D-01 0.108D+00 0.284D+00
 Coeff-Com:  0.590D+00
 Coeff:     -0.337D-06 0.755D-06-0.562D-05-0.133D-04-0.544D-04-0.150D-03
 Coeff:     -0.444D-03-0.112D-02 0.293D-02 0.183D-01 0.108D+00 0.284D+00
 Coeff:      0.590D+00
 Gap=     0.201 Goal=   None    Shift=    0.000
 RMSDP=2.99D-08 MaxDP=5.46D-06 DE=-9.09D-12 OVMax= 2.61D-07

 Cycle  14  Pass 1  IDiag  1:
 RMSU=  1.07D-08    CP:  1.10D+00  5.41D-01  9.94D-01  7.86D-01  7.91D-01
                    CP:  5.97D-01  8.74D-01  8.98D-01  8.64D-01  7.91D-01
                    CP:  7.66D-01  8.16D-01  8.12D-01
 E= -788.673643156382     Delta-E=        0.000000000029 Rises=F Damp=F
 DIIS: error= 1.12D-08 at cycle  14 NSaved=  14.
 NSaved=14 IEnMin=13 EnMin= -788.673643156410     IErMin=14 ErrMin= 1.12D-08
 ErrMax= 1.12D-08  0.00D+00 EMaxC= 1.00D-01 BMatC= 1.41D-13 BMatP= 1.44D-12
 IDIUse=1 WtCom= 1.00D+00 WtEn= 0.00D+00
 Coeff-Com: -0.163D-06 0.437D-06-0.914D-06-0.226D-05-0.133D-04-0.424D-04
 Coeff-Com: -0.187D-03-0.648D-03-0.100D-02 0.167D-02 0.155D-01 0.676D-01
 Coeff-Com:  0.279D+00 0.638D+00
 Coeff:     -0.163D-06 0.437D-06-0.914D-06-0.226D-05-0.133D-04-0.424D-04
 Coeff:     -0.187D-03-0.648D-03-0.100D-02 0.167D-02 0.155D-01 0.676D-01
 Coeff:      0.279D+00 0.638D+00
 Gap=     0.201 Goal=   None    Shift=    0.000
 RMSDP=8.80D-09 MaxDP=1.08D-06 DE= 2.86D-11 OVMax= 6.81D-08

 Cycle  15  Pass 1  IDiag  1:
 RMSU=  3.26D-09    CP:  1.10D+00  5.41D-01  9.94D-01  7.86D-01  7.91D-01
                    CP:  5.97D-01  8.74D-01  8.98D-01  8.64D-01  7.92D-01
                    CP:  7.70D-01  8.17D-01  9.10D-01  8.50D-01
 E= -788.673643156379     Delta-E=        0.000000000003 Rises=F Damp=F
 DIIS: error= 3.48D-09 at cycle  15 NSaved=  15.
 NSaved=15 IEnMin=13 EnMin= -788.673643156410     IErMin=15 ErrMin= 3.48D-09
 ErrMax= 3.48D-09  0.00D+00 EMaxC= 1.00D-01 BMatC= 1.20D-14 BMatP= 1.41D-13
 IDIUse=1 WtCom= 1.00D+00 WtEn= 0.00D+00
 Coeff-Com: -0.353D-07 0.123D-06 0.112D-06 0.200D-06-0.801D-06-0.588D-05
 Coeff-Com: -0.375D-04-0.183D-03-0.706D-03-0.848D-03-0.369D-02 0.228D-02
 Coeff-Com:  0.698D-01 0.293D+00 0.640D+00
 Coeff:     -0.353D-07 0.123D-06 0.112D-06 0.200D-06-0.801D-06-0.588D-05
 Coeff:     -0.375D-04-0.183D-03-0.706D-03-0.848D-03-0.369D-02 0.228D-02
 Coeff:      0.698D-01 0.293D+00 0.640D+00
 Gap=     0.201 Goal=   None    Shift=    0.000
 RMSDP=2.23D-09 MaxDP=1.90D-07 DE= 2.96D-12 OVMax= 2.47D-08

 SCF Done:  E(RB3LYP) =  -788.673643156     A.U. after   15 cycles
            NFock= 15  Conv=0.22D-08     -V/T= 2.0042
 KE= 7.853921075664D+02 PE=-4.295842758970D+03 EE= 1.493878175745D+03
 Leave Link  502 at Fri Aug 19 08:51:06 2022, MaxMem=    52428800 cpu:      1087.7
 (Enter /home/software/gaussian//09.d01/l508.exe)
 QCSCF skips out because SCF is already converged.
 Leave Link  508 at Fri Aug 19 08:51:06 2022, MaxMem=    52428800 cpu:         0.0
 (Enter /home/software/gaussian//09.d01/l601.exe)
 Copying SCF densities to generalized density rwf, IOpCl= 0 IROHF=0.

 **********************************************************************

            Population analysis using the SCF density.

 **********************************************************************

 Alpha  occ. eigenvalues --  -19.16556 -19.13290 -19.12550 -14.28325 -10.24041
 Alpha  occ. eigenvalues --  -10.22876 -10.22301 -10.20061 -10.18527 -10.18362
 Alpha  occ. eigenvalues --  -10.18085 -10.17768 -10.17528 -10.17421 -10.15220
 Alpha  occ. eigenvalues --  -10.15173 -10.15151  -1.07766  -1.03813  -1.03125
 Alpha  occ. eigenvalues --   -0.90492  -0.86383  -0.79279  -0.77733  -0.76028
 Alpha  occ. eigenvalues --   -0.70558  -0.68512  -0.68230  -0.68164  -0.63687
 Alpha  occ. eigenvalues --   -0.61282  -0.57930  -0.55397  -0.54796  -0.53250
 Alpha  occ. eigenvalues --   -0.51747  -0.49888  -0.47228  -0.46743  -0.46607
 Alpha  occ. eigenvalues --   -0.45315  -0.44268  -0.43499  -0.43158  -0.42093
 Alpha  occ. eigenvalues --   -0.41836  -0.41353  -0.40870  -0.39157  -0.38241
 Alpha  occ. eigenvalues --   -0.37331  -0.37131  -0.36051  -0.35624  -0.35398
 Alpha  occ. eigenvalues --   -0.34962  -0.34056  -0.33324  -0.32497  -0.31922
 Alpha  occ. eigenvalues --   -0.29343  -0.28543  -0.25577  -0.22764  -0.21816
 Alpha virt. eigenvalues --   -0.01727  -0.01040  -0.00752  -0.00375   0.00481
 Alpha virt. eigenvalues --    0.01212   0.02035   0.02643   0.03159   0.03932
 Alpha virt. eigenvalues --    0.04239   0.04602   0.04846   0.05535   0.05900
 Alpha virt. eigenvalues --    0.06284   0.06722   0.06966   0.07415   0.07653
 Alpha virt. eigenvalues --    0.08763   0.08871   0.09318   0.09988   0.10444
 Alpha virt. eigenvalues --    0.10601   0.11406   0.11798   0.12223   0.12471
 Alpha virt. eigenvalues --    0.12573   0.12928   0.13833   0.13998   0.14446
 Alpha virt. eigenvalues --    0.14493   0.15269   0.15477   0.15860   0.15929
 Alpha virt. eigenvalues --    0.16475   0.16979   0.17185   0.17409   0.18065
 Alpha virt. eigenvalues --    0.18198   0.18861   0.19054   0.19407   0.19608
 Alpha virt. eigenvalues --    0.19787   0.20076   0.20212   0.20780   0.21079
 Alpha virt. eigenvalues --    0.21258   0.21740   0.22380   0.22676   0.22742
 Alpha virt. eigenvalues --    0.23011   0.23335   0.23816   0.24145   0.24769
 Alpha virt. eigenvalues --    0.25044   0.25271   0.25412   0.25613   0.26209
 Alpha virt. eigenvalues --    0.26364   0.26456   0.27023   0.27413   0.27642
 Alpha virt. eigenvalues --    0.27964   0.28214   0.28545   0.28848   0.29182
 Alpha virt. eigenvalues --    0.29668   0.29789   0.30240   0.30830   0.31286
 Alpha virt. eigenvalues --    0.31837   0.32757   0.33189   0.33542   0.34010
 Alpha virt. eigenvalues --    0.34981   0.35116   0.35725   0.36338   0.36587
 Alpha virt. eigenvalues --    0.37455   0.37669   0.38458   0.40210   0.40698
 Alpha virt. eigenvalues --    0.41044   0.42225   0.42568   0.42999   0.43386
 Alpha virt. eigenvalues --    0.44253   0.46074   0.46773   0.48436   0.49325
 Alpha virt. eigenvalues --    0.49874   0.51599   0.52036   0.52631   0.52763
 Alpha virt. eigenvalues --    0.53356   0.54577   0.54729   0.55552   0.56118
 Alpha virt. eigenvalues --    0.56540   0.56964   0.57619   0.58064   0.59999
 Alpha virt. eigenvalues --    0.60306   0.60752   0.61244   0.62464   0.63141
 Alpha virt. eigenvalues --    0.63604   0.63856   0.64580   0.65142   0.65289
 Alpha virt. eigenvalues --    0.66274   0.66531   0.67144   0.67649   0.67936
 Alpha virt. eigenvalues --    0.68974   0.69704   0.70010   0.70729   0.71004
 Alpha virt. eigenvalues --    0.71368   0.72015   0.72386   0.72899   0.73393
 Alpha virt. eigenvalues --    0.73591   0.75414   0.75678   0.76423   0.76768
 Alpha virt. eigenvalues --    0.76823   0.77395   0.79161   0.79750   0.81372
 Alpha virt. eigenvalues --    0.81964   0.82704   0.84465   0.85567   0.85759
 Alpha virt. eigenvalues --    0.87534   0.89768   0.90856   0.91422   0.93014
 Alpha virt. eigenvalues --    0.94234   0.96070   0.96819   0.97915   0.98406
 Alpha virt. eigenvalues --    1.00199   1.01348   1.01599   1.02924   1.03075
 Alpha virt. eigenvalues --    1.05615   1.06430   1.07280   1.08094   1.09785
 Alpha virt. eigenvalues --    1.11051   1.12392   1.13460   1.13675   1.15122
 Alpha virt. eigenvalues --    1.15743   1.16582   1.17954   1.18813   1.21274
 Alpha virt. eigenvalues --    1.22129   1.22600   1.24003   1.25663   1.27341
 Alpha virt. eigenvalues --    1.29133   1.31171   1.31843   1.32727   1.34283
 Alpha virt. eigenvalues --    1.35617   1.37092   1.38792   1.40199   1.40650
 Alpha virt. eigenvalues --    1.43830   1.44608   1.45376   1.45939   1.46851
 Alpha virt. eigenvalues --    1.48003   1.48810   1.49488   1.50970   1.51710
 Alpha virt. eigenvalues --    1.51964   1.52757   1.53196   1.53959   1.54914
 Alpha virt. eigenvalues --    1.55909   1.56132   1.56444   1.57493   1.58114
 Alpha virt. eigenvalues --    1.58915   1.59921   1.60755   1.61328   1.61961
 Alpha virt. eigenvalues --    1.62308   1.64555   1.66249   1.66459   1.67095
 Alpha virt. eigenvalues --    1.68080   1.68438   1.68619   1.69578   1.70370
 Alpha virt. eigenvalues --    1.70552   1.71114   1.72930   1.73738   1.74610
 Alpha virt. eigenvalues --    1.74656   1.75514   1.77486   1.78024   1.79434
 Alpha virt. eigenvalues --    1.80180   1.82506   1.83465   1.84126   1.85337
 Alpha virt. eigenvalues --    1.87429   1.88851   1.90364   1.91239   1.91502
 Alpha virt. eigenvalues --    1.93536   1.93996   1.94590   1.95139   1.97728
 Alpha virt. eigenvalues --    1.98341   1.99043   2.00602   2.01090   2.01915
 Alpha virt. eigenvalues --    2.02686   2.04335   2.05603   2.07696   2.07993
 Alpha virt. eigenvalues --    2.10409   2.10641   2.11396   2.12217   2.13068
 Alpha virt. eigenvalues --    2.14408   2.15152   2.17328   2.19772   2.20906
 Alpha virt. eigenvalues --    2.22395   2.22859   2.26011   2.26445   2.27517
 Alpha virt. eigenvalues --    2.28058   2.29672   2.31088   2.34196   2.37511
 Alpha virt. eigenvalues --    2.40099   2.41849   2.43066   2.43951   2.44838
 Alpha virt. eigenvalues --    2.47076   2.48771   2.49305   2.50014   2.50889
 Alpha virt. eigenvalues --    2.51475   2.52905   2.53617   2.54106   2.54793
 Alpha virt. eigenvalues --    2.54858   2.56771   2.57643   2.58332   2.59101
 Alpha virt. eigenvalues --    2.61193   2.61906   2.62876   2.63250   2.63934
 Alpha virt. eigenvalues --    2.64993   2.66307   2.68987   2.72118   2.72319
 Alpha virt. eigenvalues --    2.73369   2.74413   2.74742   2.75179   2.75426
 Alpha virt. eigenvalues --    2.77863   2.78721   2.79774   2.80793   2.81809
 Alpha virt. eigenvalues --    2.84953   2.85512   2.86336   2.86972   2.88245
 Alpha virt. eigenvalues --    2.89079   2.92275   2.94414   2.95481   2.99609
 Alpha virt. eigenvalues --    3.01256   3.01391   3.04355   3.05361   3.06492
 Alpha virt. eigenvalues --    3.07768   3.08339   3.09576   3.11606   3.13289
 Alpha virt. eigenvalues --    3.14878   3.16452   3.17034   3.18361   3.20887
 Alpha virt. eigenvalues --    3.21235   3.22875   3.23824   3.25189   3.28605
 Alpha virt. eigenvalues --    3.32054   3.33352   3.38279   3.41291   3.43076
 Alpha virt. eigenvalues --    3.44437   3.49764   3.57178   3.60728   3.66017
 Alpha virt. eigenvalues --    3.72898   3.76673   3.77152   3.78226   3.78722
 Alpha virt. eigenvalues --    3.79248   3.82047   3.82624   3.83316   3.83841
 Alpha virt. eigenvalues --    3.88214   3.89990   3.91141   3.91874   3.98229
 Alpha virt. eigenvalues --    4.00383   4.08025   4.16214   4.18781   4.20220
 Alpha virt. eigenvalues --    4.22694   4.30434   4.31182   4.32939   4.38538
 Alpha virt. eigenvalues --    4.81905   4.86757   4.97124   4.99799   5.01320
 Alpha virt. eigenvalues --    5.14052   5.43639   5.44398   5.46030   5.68589
 Alpha virt. eigenvalues --    5.69584   5.75059  23.57546  23.78727  23.83245
 Alpha virt. eigenvalues --   23.84133  23.89456  23.93790  23.95438  23.96351
 Alpha virt. eigenvalues --   23.97338  23.97992  24.06527  24.10197  24.18391
 Alpha virt. eigenvalues --   35.62221  49.91677  49.94007  49.94930
          Condensed to atoms (all electrons):
               1          2          3          4          5          6
     1  C    5.718299   0.453433   0.370009   0.360745   0.039325  -0.203201
     2  H    0.453433   0.544598  -0.028291  -0.027727  -0.097083  -0.025383
     3  H    0.370009  -0.028291   0.539805  -0.027515   0.019355   0.005025
     4  H    0.360745  -0.027727  -0.027515   0.545746   0.036560   0.010891
     5  C    0.039325  -0.097083   0.019355   0.036560   6.849434   0.181935
     6  C   -0.203201  -0.025383   0.005025   0.010891   0.181935   5.506455
     7  H   -0.043537   0.000022   0.002503   0.000121   0.058170   0.357040
     8  H    0.019179   0.000496  -0.000488   0.000030  -0.138292   0.460794
     9  H    0.021523   0.000071  -0.000102  -0.000490   0.008523   0.403661
    10  C   -0.293257   0.011118   0.013123  -0.021441  -0.254206  -0.102568
    11  H    0.000890   0.000338   0.000193  -0.000012  -0.089097  -0.007397
    12  H   -0.017743   0.000061   0.000093   0.002398   0.034775   0.001893
    13  H    0.019797  -0.000043  -0.000561   0.000091   0.017816  -0.000040
    14  N   -0.024312   0.026856  -0.023584  -0.031890  -0.316114  -0.180626
    15  H   -0.017843  -0.001172   0.001500   0.000991  -0.010956   0.015090
    16  C   -0.080182   0.006157  -0.012763   0.008572   0.078750   0.037896
    17  H    0.034258  -0.000105  -0.000189  -0.000877  -0.051201  -0.009573
    18  H   -0.016299  -0.000612   0.002406   0.004474   0.039601   0.011166
    19  C   -0.039928   0.000294   0.001174   0.011985  -0.017485   0.038514
    20  H    0.000364   0.000000   0.000005  -0.000035   0.010475  -0.003102
    21  C    0.027773  -0.000187  -0.002690  -0.007885  -0.192379  -0.032147
    22  C    0.027052  -0.000052  -0.000407  -0.002442  -0.007933  -0.012310
    23  H   -0.000006   0.000000   0.000000  -0.000001   0.000303   0.000018
    24  C    0.009965  -0.000010   0.000006  -0.000686  -0.004786  -0.003940
    25  C   -0.000617   0.000000  -0.000018   0.000093   0.002420  -0.000029
    26  C    0.012807  -0.000020  -0.000245  -0.000023  -0.004382  -0.007152
    27  H   -0.000007   0.000000   0.000000   0.000000   0.000003   0.000001
    28  C   -0.007239  -0.000143   0.000133   0.003562   0.020530   0.000453
    29  H   -0.000723   0.000001   0.000003  -0.000017   0.000597   0.000083
    30  O   -0.000001   0.000000   0.000000   0.000000  -0.000007   0.000000
    31  H    0.000001   0.000000   0.000000   0.000000  -0.000001   0.000000
    32  C    0.000424   0.000000   0.000000  -0.000024  -0.003445  -0.000141
    33  H   -0.000002   0.000000   0.000000   0.000000   0.000007   0.000000
    34  H    0.000000   0.000000   0.000000   0.000000  -0.000006   0.000000
    35  O    0.000010   0.000000   0.000000   0.000000  -0.000170  -0.000004
    36  H    0.000001   0.000000   0.000000   0.000000   0.000001   0.000000
    37  O    0.011399  -0.000136   0.000014   0.000121  -0.016392   0.001570
    38  H    0.000418  -0.000001   0.000004   0.000003  -0.002142   0.000436
               7          8          9         10         11         12
     1  C   -0.043537   0.019179   0.021523  -0.293257   0.000890  -0.017743
     2  H    0.000022   0.000496   0.000071   0.011118   0.000338   0.000061
     3  H    0.002503  -0.000488  -0.000102   0.013123   0.000193   0.000093
     4  H    0.000121   0.000030  -0.000490  -0.021441  -0.000012   0.002398
     5  C    0.058170  -0.138292   0.008523  -0.254206  -0.089097   0.034775
     6  C    0.357040   0.460794   0.403661  -0.102568  -0.007397   0.001893
     7  H    0.553475  -0.029863  -0.025882   0.024227   0.000068  -0.000535
     8  H   -0.029863   0.551053  -0.028145  -0.007673   0.001954  -0.000046
     9  H   -0.025882  -0.028145   0.525066  -0.034883  -0.000275   0.000235
    10  C    0.024227  -0.007673  -0.034883   5.828731   0.435485   0.363658
    11  H    0.000068   0.001954  -0.000275   0.435485   0.549719  -0.029926
    12  H   -0.000535  -0.000046   0.000235   0.363658  -0.029926   0.554221
    13  H   -0.000117  -0.000196   0.003285   0.364266  -0.024932  -0.027591
    14  N   -0.029908   0.036337  -0.023438   0.090317   0.019358  -0.022045
    15  H    0.003954  -0.000585   0.000249   0.006696  -0.000154  -0.000408
    16  C    0.000317   0.000654   0.000629  -0.053085   0.007756   0.006087
    17  H    0.000050  -0.000024  -0.000026  -0.010022   0.000040   0.001860
    18  H   -0.000103   0.000106   0.000028  -0.004563   0.000228  -0.001405
    19  C   -0.001776  -0.000254  -0.003343  -0.002444   0.001251   0.008468
    20  H   -0.000002   0.000008   0.000053  -0.002010  -0.000001  -0.000019
    21  C   -0.000091   0.000255  -0.000184   0.036855  -0.000313  -0.004542
    22  C   -0.000186   0.000085   0.000379  -0.009398   0.000371   0.000339
    23  H    0.000000   0.000000   0.000000  -0.000531   0.000000  -0.000006
    24  C   -0.000016   0.000015   0.000039  -0.002713   0.000064   0.000278
    25  C   -0.000001  -0.000001  -0.000002  -0.000089   0.000002   0.000197
    26  C    0.000035  -0.000001   0.000027  -0.007940  -0.000016  -0.000110
    27  H    0.000000   0.000000   0.000000  -0.000003   0.000000   0.000000
    28  C    0.000245  -0.000083  -0.000066  -0.009838  -0.000151  -0.000660
    29  H    0.000000   0.000000   0.000000   0.000052   0.000000   0.000000
    30  O    0.000000   0.000000   0.000000   0.000014   0.000000   0.000000
    31  H    0.000000   0.000000   0.000000   0.000000   0.000000   0.000000
    32  C    0.000000   0.000000   0.000001   0.000921  -0.000003  -0.000078
    33  H    0.000000   0.000000   0.000000   0.000009   0.000000   0.000000
    34  H    0.000000   0.000000   0.000000   0.000001   0.000000   0.000000
    35  O    0.000000   0.000000   0.000000   0.000072   0.000000   0.000000
    36  H    0.000000   0.000000   0.000000  -0.000003   0.000000   0.000000
    37  O   -0.000225   0.000008  -0.000046   0.000327   0.000029   0.000017
    38  H   -0.000005   0.000000  -0.000001  -0.000734   0.000000   0.000003
              13         14         15         16         17         18
     1  C    0.019797  -0.024312  -0.017843  -0.080182   0.034258  -0.016299
     2  H   -0.000043   0.026856  -0.001172   0.006157  -0.000105  -0.000612
     3  H   -0.000561  -0.023584   0.001500  -0.012763  -0.000189   0.002406
     4  H    0.000091  -0.031890   0.000991   0.008572  -0.000877   0.004474
     5  C    0.017816  -0.316114  -0.010956   0.078750  -0.051201   0.039601
     6  C   -0.000040  -0.180626   0.015090   0.037896  -0.009573   0.011166
     7  H   -0.000117  -0.029908   0.003954   0.000317   0.000050  -0.000103
     8  H   -0.000196   0.036337  -0.000585   0.000654  -0.000024   0.000106
     9  H    0.003285  -0.023438   0.000249   0.000629  -0.000026   0.000028
    10  C    0.364266   0.090317   0.006696  -0.053085  -0.010022  -0.004563
    11  H   -0.024932   0.019358  -0.000154   0.007756   0.000040   0.000228
    12  H   -0.027591  -0.022045  -0.000408   0.006087   0.001860  -0.001405
    13  H    0.523317  -0.014619  -0.000219  -0.006840   0.000475   0.000383
    14  N   -0.014619   7.129737   0.369008   0.152854  -0.006521  -0.138813
    15  H   -0.000219   0.369008   0.438045  -0.030219   0.001795   0.006303
    16  C   -0.006840   0.152854  -0.030219   6.384026   0.364310   0.410736
    17  H    0.000475  -0.006521   0.001795   0.364310   0.563646  -0.048535
    18  H    0.000383  -0.138813   0.006303   0.410736  -0.048535   0.637884
    19  C   -0.003124  -0.417277  -0.028467  -1.581139  -0.010159   0.049800
    20  H    0.000017   0.010878   0.003570   0.001606  -0.004412   0.009648
    21  C   -0.001518   0.167466   0.021520   0.648328  -0.009991  -0.050745
    22  C   -0.000136   0.069718   0.002440   0.346540   0.010352  -0.005975
    23  H    0.000003  -0.001029   0.000015  -0.011479   0.000813   0.000019
    24  C    0.000017   0.041220   0.000446   0.098651  -0.003473   0.013119
    25  C   -0.000004  -0.001604  -0.000186   0.018367   0.006480  -0.006963
    26  C    0.000011   0.053769  -0.001768  -0.050325   0.001305  -0.007533
    27  H    0.000000  -0.000036   0.000000  -0.001799   0.000009   0.000040
    28  C    0.000406  -0.015330  -0.004743  -0.028353   0.020694  -0.015031
    29  H    0.000000  -0.001527   0.000100  -0.007496   0.000094   0.001529
    30  O    0.000000   0.000016   0.000000  -0.000459   0.000002   0.000004
    31  H    0.000000   0.000002   0.000000  -0.000052   0.000001   0.000000
    32  C    0.000007   0.003899  -0.000007  -0.015140  -0.000774   0.000420
    33  H    0.000000   0.000002   0.000000  -0.000010   0.000005  -0.000001
    34  H    0.000000  -0.000002   0.000000  -0.000190  -0.000001   0.000000
    35  O    0.000000   0.000064  -0.000001  -0.002413  -0.000045   0.000002
    36  H    0.000000   0.000002   0.000000   0.000427  -0.000003   0.000000
    37  O    0.000018   0.020487   0.015197  -0.114815   0.013353  -0.018027
    38  H    0.000002  -0.004615  -0.001417  -0.055658  -0.000540   0.000776
              19         20         21         22         23         24
     1  C   -0.039928   0.000364   0.027773   0.027052  -0.000006   0.009965
     2  H    0.000294   0.000000  -0.000187  -0.000052   0.000000  -0.000010
     3  H    0.001174   0.000005  -0.002690  -0.000407   0.000000   0.000006
     4  H    0.011985  -0.000035  -0.007885  -0.002442  -0.000001  -0.000686
     5  C   -0.017485   0.010475  -0.192379  -0.007933   0.000303  -0.004786
     6  C    0.038514  -0.003102  -0.032147  -0.012310   0.000018  -0.003940
     7  H   -0.001776  -0.000002  -0.000091  -0.000186   0.000000  -0.000016
     8  H   -0.000254   0.000008   0.000255   0.000085   0.000000   0.000015
     9  H   -0.003343   0.000053  -0.000184   0.000379   0.000000   0.000039
    10  C   -0.002444  -0.002010   0.036855  -0.009398  -0.000531  -0.002713
    11  H    0.001251  -0.000001  -0.000313   0.000371   0.000000   0.000064
    12  H    0.008468  -0.000019  -0.004542   0.000339  -0.000006   0.000278
    13  H   -0.003124   0.000017  -0.001518  -0.000136   0.000003   0.000017
    14  N   -0.417277   0.010878   0.167466   0.069718  -0.001029   0.041220
    15  H   -0.028467   0.003570   0.021520   0.002440   0.000015   0.000446
    16  C   -1.581139   0.001606   0.648328   0.346540  -0.011479   0.098651
    17  H   -0.010159  -0.004412  -0.009991   0.010352   0.000813  -0.003473
    18  H    0.049800   0.009648  -0.050745  -0.005975   0.000019   0.013119
    19  C   19.049074   0.113300  -6.013070  -4.168285   0.063273  -2.699498
    20  H    0.113300   0.610162  -0.131643   0.248879   0.001785   0.142244
    21  C   -6.013070  -0.131643  14.624274   1.402753  -0.088806  -3.070896
    22  C   -4.168285   0.248879   1.402753  10.198439   0.383926   0.570418
    23  H    0.063273   0.001785  -0.088806   0.383926   0.502866  -0.002951
    24  C   -2.699498   0.142244  -3.070896   0.570418  -0.002951  15.463332
    25  C    1.450327   0.005320   0.381566  -1.904797   0.026016  -2.630459
    26  C   -2.639446   0.018669   0.154162   0.724387  -0.009427   1.096169
    27  H    0.011374   0.000020   0.011945  -0.019388   0.000025  -0.073340
    28  C    3.265197  -0.120410  -1.173424  -1.686013   0.007392  -3.215078
    29  H    0.067524   0.000144  -0.092566  -0.009714  -0.000285  -0.007608
    30  O   -0.007594  -0.000007  -0.073337   0.025859  -0.000585  -0.349146
    31  H   -0.000783   0.000003  -0.005022  -0.028636   0.000006   0.099724
    32  C   -0.758016   0.004513  -1.086538   0.097304  -0.018030   0.337149
    33  H    0.004029  -0.000004   0.004164  -0.004230  -0.000201  -0.054609
    34  H    0.000469  -0.000005  -0.007667  -0.032514  -0.000079  -0.091988
    35  O    0.028173   0.000191   0.031581  -0.002379   0.010543   0.063137
    36  H   -0.008706   0.000010  -0.026865  -0.030822  -0.000982  -0.096569
    37  O    0.096077  -0.046378   0.054844   0.131690   0.000243   0.047945
    38  H    0.067799  -0.010807   0.072687  -0.062338   0.000289  -0.020087
              25         26         27         28         29         30
     1  C   -0.000617   0.012807  -0.000007  -0.007239  -0.000723  -0.000001
     2  H    0.000000  -0.000020   0.000000  -0.000143   0.000001   0.000000
     3  H   -0.000018  -0.000245   0.000000   0.000133   0.000003   0.000000
     4  H    0.000093  -0.000023   0.000000   0.003562  -0.000017   0.000000
     5  C    0.002420  -0.004382   0.000003   0.020530   0.000597  -0.000007
     6  C   -0.000029  -0.007152   0.000001   0.000453   0.000083   0.000000
     7  H   -0.000001   0.000035   0.000000   0.000245   0.000000   0.000000
     8  H   -0.000001  -0.000001   0.000000  -0.000083   0.000000   0.000000
     9  H   -0.000002   0.000027   0.000000  -0.000066   0.000000   0.000000
    10  C   -0.000089  -0.007940  -0.000003  -0.009838   0.000052   0.000014
    11  H    0.000002  -0.000016   0.000000  -0.000151   0.000000   0.000000
    12  H    0.000197  -0.000110   0.000000  -0.000660   0.000000   0.000000
    13  H   -0.000004   0.000011   0.000000   0.000406   0.000000   0.000000
    14  N   -0.001604   0.053769  -0.000036  -0.015330  -0.001527   0.000016
    15  H   -0.000186  -0.001768   0.000000  -0.004743   0.000100   0.000000
    16  C    0.018367  -0.050325  -0.001799  -0.028353  -0.007496  -0.000459
    17  H    0.006480   0.001305   0.000009   0.020694   0.000094   0.000002
[...]
 00017300,0.00006932,0.00015340,-0.00000574,0.00000363,-0.00000515,-0.0
 0032815,-0.00104063,0.00060340,0.00022500,0.00140221,0.00197907,0.0000
 1336,0.00054570,-0.00042071,-0.02285488,0.01080230,-0.00184648,-0.0022
 7570,-0.00241783,-0.00136253,0.00006831,-0.00035175,0.00015315,-0.0000
 2092,0.00008956,0.00007921,-0.00025588,0.00000762,-0.00014722,-0.00000
 728,0.00006194,0.00001615,0.00202254,0.00080254,-0.00002343,0.00024414
 ,-0.00000801,-0.00018030,-0.20896105,0.09685106,-0.06270426,0.00623852
 ,-0.00216199,0.00203669,0.23111518,0.00000193,-0.00000633,-0.00000060,
 0.00000429,-0.00000250,0.00000063,-0.00000129,0.00000161,-0.00000002,-
 0.00000032,0.00000416,0.00000152,-0.00001823,0.00001448,-0.00000529,0.
 00000295,-0.00000300,-0.00000105,-0.00000066,0.00000107,-0.00000056,0.
 00000374,-0.00000151,0.00000096,-0.00000155,0.00000083,0.00000042,-0.0
 0000101,-0.00000740,-0.00000346,0.00000410,-0.00000151,0.00000134,0.00
 000063,0.00000502,0.00000095,-0.00000117,0.00000151,-0.00000042,0.0000
 3056,0.00000640,0.00001570,-0.00000182,-0.00000058,-0.00000201,-0.0000
 2522,-0.00001993,-0.00000960,-0.00000303,0.00000143,-0.00000630,0.0000
 0110,0.00000771,0.00001055,-0.00006114,-0.00000043,-0.00003070,-0.0000
 0222,0.00000794,0.00000324,-0.00005580,-0.00023389,-0.00004653,-0.0002
 4792,-0.00035103,0.00014279,0.00004690,0.00013750,-0.00017231,-0.00429
 809,0.00292183,-0.00041359,0.00165810,0.00152466,-0.00021742,-0.000263
 44,-0.00037391,0.00010628,0.00003123,-0.00000606,-0.00005585,0.0001464
 6,0.00003716,0.00001581,-0.00002210,0.00000846,-0.00000367,-0.00076509
 ,-0.00031155,0.00026540,-0.00024275,0.00007246,0.00010807,0.09914534,-
 0.10891200,0.03845283,0.02547033,-0.01627705,0.01020333,-0.10198279,0.
 11126716,0.00000837,-0.00001577,0.00000377,0.00000900,-0.00000447,-0.0
 0000036,-0.00000524,-0.00000099,0.00000450,-0.00000096,0.00000985,-0.0
 0000051,-0.00003645,0.00004533,-0.00003437,0.00000969,-0.00001233,0.00
 000134,-0.00000375,-0.00000206,0.00000179,0.00000830,-0.00000034,0.000
 00161,-0.00000218,0.00000348,0.00000126,0.00000792,-0.00001416,-0.0000
 0319,0.00000507,-0.00000299,0.00000450,-0.00000076,0.00000364,-0.00000
 679,0.00000101,0.00000877,0.00000423,0.00008090,-0.00000686,0.00006170
 ,-0.00001194,0.,-0.00000510,-0.00004282,0.00000925,-0.00005398,-0.0000
 0510,0.00000194,-0.00000341,-0.00000471,0.00001497,0.00002931,-0.00014
 071,-0.00008157,-0.00022908,0.00001355,0.00002442,0.00002606,0.0000425
 0,0.00127718,-0.00035876,0.00101823,-0.00078503,-0.00214638,0.00040973
 ,-0.00038728,0.00006611,0.01889980,-0.00984353,0.00875051,0.00165668,0
 .00029830,-0.00068770,-0.00054141,0.00065570,0.00044137,-0.00003915,-0
 .00008319,-0.00001376,0.00057496,0.00007096,-0.00007414,0.00002102,-0.
 00011245,0.00003444,-0.00056267,-0.00091016,-0.00013028,-0.00008499,0.
 00027287,-0.00007682,-0.05808376,0.03787934,-0.07112096,-0.00611154,0.
 00579448,0.00047585,0.07332234,-0.03803727,0.08941882,-0.00001474,0.00
 001473,0.00000452,-0.00001627,0.00001126,-0.00000239,0.00000233,-0.000
 00655,0.00000790,0.00000463,-0.00001231,-0.00000579,0.00007853,-0.0000
 5429,0.00000092,-0.00001019,0.00000907,0.00000042,-0.00000043,-0.00000
 757,0.00000837,-0.00001462,0.00000637,-0.00000449,0.00000898,0.0000039
 5,0.00000107,0.00000089,0.00000561,-0.00000521,-0.00002378,0.00000757,
 0.00000078,0.00000240,-0.00002740,-0.00001184,0.00001845,0.00001235,0.
 00001804,-0.00012055,0.00002024,0.00002284,-0.00000460,0.00000395,0.00
 000108,0.00010229,0.00002539,-0.00006209,0.00002230,-0.00005270,0.0000
 1748,-0.00002498,0.00000081,0.00002658,0.00018843,0.00007746,-0.000349
 54,0.00002291,0.00006602,0.00004048,0.00138103,0.00059694,0.00076858,-
 0.00205380,-0.00094951,-0.00015269,-0.00135233,0.00068065,0.00295495,0
 .01164625,0.01315613,0.02705911,-0.00646848,-0.00214828,0.00107140,0.0
 0049968,0.00061191,0.00160246,-0.00028481,0.00003320,0.00036512,0.0001
 9131,0.00016862,0.00026110,0.00000141,0.00008381,0.00010383,0.00134356
 ,0.00012948,-0.00065905,0.00029174,0.00003447,-0.00009335,-0.10592520,
 -0.02704933,-0.01751992,-0.00198548,-0.00651511,-0.01294301,-0.0053323
 1,-0.01849046,-0.02924673,0.39254706,-0.00000478,-0.00001497,-0.000001
 81,0.00000942,-0.00000677,0.00000349,-0.00000272,0.00000541,-0.0000053
 3,0.00000626,0.00001720,0.00000842,-0.00003811,0.00003791,-0.00000346,
 0.00001473,-0.00001868,-0.00001087,0.00000434,0.00000667,-0.00000849,0
 .00001075,-0.00000059,0.00000407,-0.00000447,0.00000173,0.00001261,-0.
 00001062,-0.00002865,-0.00002490,0.00001179,-0.00000256,0.00000297,0.0
 0001021,0.00002556,0.00001324,-0.00000705,-0.00000171,0.00000277,0.000
 14015,0.00005854,0.00008103,0.00001433,-0.00002844,-0.00002826,-0.0000
 6823,-0.00001285,0.00003635,-0.00002267,0.00001811,-0.00004436,-0.0000
 1035,0.00005035,0.00003348,-0.00017516,-0.00037900,-0.00020439,0.00006
 058,0.00003627,0.00008134,0.00040577,0.00043269,-0.00021109,-0.0014594
 4,-0.00031914,-0.00006683,0.00006335,-0.00009535,0.00074997,0.00106128
 ,0.00295794,-0.00169677,-0.00104350,-0.00038382,-0.00003335,-0.0003787
 7,0.00002494,0.00021142,0.00001483,-0.00007375,0.00002062,0.00036169,0
 .00020947,0.00020326,0.00005280,-0.00005417,0.00004911,0.00042992,0.00
 042229,-0.00048840,0.00022618,0.00017329,-0.00002886,-0.03935389,-0.09
 548364,-0.04409809,-0.01359309,-0.01266402,-0.03885864,-0.00205566,0.0
 0995797,0.00345998,0.10648231,0.11331008,0.00003813,-0.00008674,0.0000
 2304,0.00005140,-0.00002701,-0.00000293,-0.00002915,-0.00000353,0.0000
 2523,-0.00000149,0.00005730,-0.00000001,-0.00018969,0.00027414,-0.0001
 7550,0.00006327,-0.00007798,0.00000337,-0.00002074,-0.00001081,0.00000
 941,0.00005222,-0.00000199,0.00000918,-0.00001424,0.00002280,0.0000119
 5,0.00003668,-0.00009275,-0.00002584,0.00003251,-0.00001868,0.00002387
 ,-0.00000053,0.00002751,-0.00003407,0.00000315,0.00005488,0.00002485,0
 .00048994,-0.00011999,0.00034681,-0.00006040,-0.00000683,-0.00003596,-
 0.00012191,0.00020115,-0.00026010,-0.00004221,0.00002851,-0.00003627,-
 0.00000763,0.00006734,0.00011614,-0.00075574,-0.00070445,-0.00035386,0
 .00004978,0.00009746,0.00012289,0.00011826,-0.00017644,-0.00095864,-0.
 00156939,-0.00074909,-0.00025784,0.00095994,0.00006268,-0.00115186,-0.
 00711675,-0.01637322,-0.03546696,0.00457274,0.00091167,-0.00179308,-0.
 00156343,-0.00095484,-0.00131399,0.00034929,0.00003733,-0.00048426,0.0
 0075330,0.00033794,0.00033151,0.00005943,0.00001220,-0.00008403,0.0005
 3691,-0.00013860,-0.00046946,0.00047989,0.00014244,0.00007830,-0.05438
 307,-0.06336795,-0.17286126,-0.00352810,-0.01190125,-0.00693049,-0.011
 74097,-0.01155538,-0.02503337,-0.19447581,0.06028737,0.51081265,-0.000
 00236,0.00000499,-0.00000501,-0.00000088,-0.00000043,0.00000178,0.0000
 0229,0.00000258,-0.00000556,-0.00000004,-0.00000120,0.00000209,-0.0000
 0022,-0.00001531,0.00002038,-0.00000387,0.00000604,-0.00000093,0.00000
 255,0.00000409,-0.00000459,-0.00000120,-0.00000196,0.00000059,-0.00000
 103,-0.00000377,-0.00000037,-0.00000665,0.00000872,0.00000137,0.000002
 74,-0.00000033,-0.00000217,0.00000121,0.00000527,0.00000813,-0.0000049
 8,-0.00001040,-0.00000632,-0.00000967,0.00001539,-0.00002702,0.0000062
 5,-0.00000378,-0.00000003,0.00000098,-0.00002078,0.00003440,0.00000317
 ,0.00000246,-0.00000193,-0.00000322,0.00000326,-0.00000525,0.00005036,
 -0.00000783,0.00000970,0.00001962,0.00000470,0.00000143,0.00034010,0.0
 0018632,0.00015453,-0.00083458,-0.00026963,0.00009630,0.00068905,0.000
 45284,0.00026957,-0.00122580,-0.00091444,-0.00185744,0.00061651,-0.000
 17086,-0.00039743,-0.00018650,-0.00010021,-0.00007505,0.00003382,0.000
 02689,-0.00006316,-0.00005728,0.00002361,0.00015592,0.00001717,0.00001
 591,0.00004889,0.00000263,0.00005069,-0.00002125,0.00005305,0.00000934
 ,-0.00000184,0.00791757,-0.00133053,-0.01761174,0.00032639,-0.00065455
 ,-0.00079359,0.00018084,-0.00008116,-0.00137051,-0.28465912,-0.0513444
 4,0.26641628,0.27675269,0.00000227,0.00000129,0.00000268,-0.00000171,0
 .00000258,-0.00000156,-0.00000077,-0.00000356,0.00000492,-0.00000259,-
 0.00000442,-0.00000450,0.00001136,-0.00000100,-0.00000991,-0.00000320,
 0.00000409,0.00000567,-0.00000345,-0.00000493,0.00000525,-0.00000237,0
 .00000088,-0.00000170,0.00000209,0.00000125,-0.00000483,0.00000585,0.0
 0000548,0.00000947,-0.00000365,0.00000077,0.00000009,-0.00000515,-0.00
 001112,-0.00000985,0.00000474,0.00000605,0.00000208,-0.00003649,-0.000
 02286,-0.00000606,-0.00000810,0.00001017,0.00000917,0.00003619,0.00001
 131,-0.00003077,0.00000670,-0.00000789,0.00001500,-0.00000636,-0.00000
 773,0.00000040,0.00003536,0.00012024,-0.00002193,0.00000209,0.00000715
 ,0.00000306,0.00015998,0.00016375,0.00003383,-0.00070026,-0.00000909,0
 .00005838,0.00043059,-0.00018871,0.00026157,-0.00155363,-0.00239096,-0
 .00281956,0.00063916,0.00082597,-0.00074323,-0.00022769,-0.00013386,-0
 .00015569,0.00008970,-0.00005509,-0.00004138,-0.00004252,0.00000312,0.
 00010294,0.00001159,0.00000906,0.00002508,0.00007645,-0.00004740,0.000
 13572,-0.00001496,-0.00001679,-0.00000403,0.01363491,-0.00031604,-0.01
 685917,0.00071206,0.00010065,-0.00027969,-0.00044861,0.00052436,0.0003
 7784,-0.06686842,-0.01830035,0.04356615,0.05410571,0.01976531,-0.00000
 971,0.00001831,-0.00000416,-0.00001138,0.00000646,0.00000088,0.0000057
 6,0.00000022,-0.00000495,0.00000084,-0.00001155,-0.00000066,0.00004618
 ,-0.00005646,0.00003498,-0.00001271,0.00001459,0.00000034,0.00000438,0
 .00000154,-0.00000255,-0.00001148,0.00000171,-0.00000158,0.00000408,-0
 .00000492,-0.00000132,-0.00000679,0.00002091,0.00000352,-0.00001028,0.
 00000462,-0.00000350,0.00000138,-0.00000871,0.00000502,0.00000276,-0.0
 0001112,-0.00000179,-0.00009564,0.00002498,-0.00005383,0.00001091,-0.0
 0000169,0.00000463,0.00004724,-0.00001669,0.00003257,0.00001186,-0.000
 01168,0.00000707,-0.00000725,-0.00000858,-0.00001242,0.00012987,0.0000
 9267,0.00003239,0.00001285,0.00000013,-0.00000225,0.00004542,0.0000317
 0,0.00009741,-0.00106230,-0.00017357,0.00061389,0.00036067,0.00021411,
 -0.00006690,-0.00382755,-0.00323278,-0.00483889,0.00168521,0.00026046,
 -0.00037243,-0.00023453,-0.00018448,-0.00035656,0.00008739,0.00004060,
 -0.00007800,-0.00017326,-0.00005407,0.00005705,0.00000351,0.00001508,0
 .00003837,-0.00006779,0.00010035,0.00027630,-0.00009242,-0.00004599,0.
 00000237,0.02671008,0.00524076,-0.02516975,0.00046269,-0.00039154,0.00
 218418,0.00000567,0.00122640,0.00065913,0.22104944,0.02061897,-0.26422
 321,-0.24496669,-0.02368036,0.29112101,-0.00020613,-0.00005511,0.00009
 427,-0.00007945,0.00010692,-0.00000427,0.00007908,-0.00000783,-0.00006
 087,0.00006970,0.00003489,-0.00000759,0.00180684,0.00042832,-0.0007300
 3,0.00003805,-0.00009245,0.00016575,0.00010467,0.00000112,-0.00007083,
 -0.00005549,0.00010198,-0.00004029,0.00003766,-0.00002275,0.00002843,-
 0.00059591,0.00043774,-0.00000442,-0.00010711,0.00012633,-0.00017699,0
 .00000384,-0.00011287,0.00003453,0.00001743,-0.00007067,0.00001720,-0.
 00090971,0.00095096,-0.00060891,0.00113532,0.00042234,-0.00134102,0.00
 753904,0.01441354,-0.01911544,-0.00319453,0.00401643,-0.00123472,0.001
 37621,-0.00121276,0.00022029,-0.09427614,0.00335370,0.02905266,-0.0011
 9457,-0.00628408,0.00915892,-0.01785032,-0.02400792,0.03139192,-0.0012
 3974,-0.00391180,-0.00340884,0.00042276,-0.00056349,0.00006543,-0.0025
 7454,0.00050062,-0.00074030,0.00123627,0.00084007,0.00170503,0.0000799
 7,0.00073713,0.00070782,-0.00000856,-0.00013320,-0.00012911,0.00108186
 ,0.00004521,0.00101171,-0.00069253,-0.00014988,0.00006850,-0.00206041,
 -0.00096555,-0.00063794,0.00015090,0.00008594,0.00019808,-0.00025845,-
 0.00005143,-0.00106200,-0.00008746,-0.00003154,0.00013881,-0.00024484,
 0.00003530,0.00023198,-0.00007106,0.00023937,0.00075658,-0.00002480,-0
 .00004815,-0.00013146,0.33833279,-0.00004987,-0.00015508,-0.00000793,0
 .00008698,-0.00000706,0.00002361,0.00000108,0.00002851,-0.00007560,-0.
 00000223,0.00017664,0.00007181,-0.00064835,0.00056876,0.00018268,0.000
 09324,-0.00022902,0.00007825,0.00008947,0.00004814,-0.00014651,0.00009
 066,0.00007185,0.00000466,-0.00001589,-0.00003025,0.00007857,0.0001436
 3,-0.00048371,0.00003748,0.00024763,0.00004238,0.00006573,0.00014346,0
 .00044517,-0.00001400,-0.00006541,0.00000611,-0.00004936,-0.00064407,0
 .00102785,0.00041507,0.00086925,-0.00156919,-0.00057664,-0.00889871,-0
 .02931675,0.03426317,0.00558847,-0.00396442,0.00125451,-0.00202260,0.0
 0282380,-0.00029191,-0.02317612,-0.10569335,0.05630488,0.00195713,0.00
 917372,0.00110078,-0.01435773,-0.01201773,0.01799832,-0.00150362,-0.00
 271332,-0.00236647,0.00031662,-0.00015732,0.00033668,-0.00087934,0.000
 66093,0.00056349,0.00110987,0.00018467,0.00018296,-0.00072911,0.000203
 57,0.00072141,-0.00008873,-0.00019171,-0.00010689,0.00044827,0.0015758
 6,0.00053026,0.00003963,-0.00028393,0.00042389,-0.00146933,-0.00055266
 ,-0.00035374,0.00015843,0.00003410,0.00013790,-0.00016665,-0.00010169,
 -0.00071918,-0.00004466,-0.00000756,0.00008905,-0.00020241,0.00002061,
 0.00016394,-0.00010642,0.00025557,0.00047290,0.00000125,-0.00007718,-0
 .00008153,-0.21532427,0.44678495,-0.00012051,0.00031923,-0.00016747,-0
 .00012549,0.00004717,0.00007286,-0.00009026,-0.00009963,0.00008526,0.0
 0002711,-0.00009250,-0.00006214,0.00104530,-0.00044678,0.00018844,-0.0
 0006055,0.00018160,-0.00007564,-0.00001978,-0.00007198,0.00005898,-0.0
 0011377,0.00000516,-0.00001688,0.00006254,0.00000609,0.00005128,-0.000
 19424,0.00026423,-0.00004029,-0.00016444,0.00003858,-0.00006084,-0.000
 02922,-0.00023153,0.00001800,0.00006696,-0.00001556,0.00011650,-0.0003
 3129,0.00094342,0.00078287,-0.00034439,0.00010923,-0.00114573,0.001805
 12,0.01470160,-0.01245261,-0.00157726,0.00072420,0.00078657,-0.0007559
 1,-0.00020345,0.00158889,0.04923374,0.03352861,-0.13867382,0.01664455,
 0.02762683,-0.03124541,0.00687120,0.00729245,0.00017134,0.00091686,0.0
 0136995,0.00069833,-0.00089546,0.00022190,0.00051705,-0.00022888,-0.00
 049133,-0.00004146,-0.00087285,-0.00005163,0.00047063,0.00119708,0.000
 17713,0.00159348,0.00026865,0.00021535,0.00007072,0.00016920,-0.003589
 47,-0.00275477,-0.00097046,0.00137801,0.00162827,0.00051840,0.00034397
 ,0.00033437,-0.00000385,0.00003943,-0.00008192,-0.00005369,-0.00007652
 ,-0.00006263,0.00001142,0.00003543,0.00003552,0.00008916,0.00000603,0.
 00000748,0.00018058,0.00000602,0.00008646,-0.00000484,0.00004729,0.000
 02301,-0.03900492,-0.15141053,0.20802906,-0.00000737,-0.00002453,0.000
 01814,0.00000121,0.00000489,-0.00000980,0.00002692,0.00001002,0.000000
 34,-0.00000799,-0.00001262,0.00000494,0.00023600,-0.00004407,-0.000144
 80,0.00001187,0.00003741,-0.00001376,-0.00001863,0.00000520,0.00003132
 ,-0.00000566,-0.00002082,0.00000033,-0.00000308,0.00000666,-0.00002516
 ,-0.00013201,0.00003350,-0.00001609,0.00001198,0.00003402,-0.00003293,
 -0.00000149,0.00000655,0.00001144,0.00000125,0.00000044,-0.00000149,-0
 .00001362,0.00026187,-0.00038962,0.00075681,0.00044362,0.00054712,-0.0
 0093009,-0.00181771,0.00150066,0.00053699,-0.00050854,0.00024360,0.000
 02956,-0.00021401,-0.00012206,0.00774293,-0.01582945,0.00534217,-0.000
 06781,-0.00023027,0.00068493,0.00163444,-0.00040106,0.00073958,-0.0007
 9185,0.00000814,0.00039834,0.00009668,-0.00008872,0.00000370,0.0001656
 3,0.00027518,0.00031285,-0.00031152,-0.00029286,-0.00029909,-0.0001659
 2,0.00002391,-0.00018350,0.00001592,-0.00001380,0.00002341,-0.00034362
 ,-0.00004190,-0.00057832,0.00016616,-0.00025868,0.00000126,0.00043361,
 0.00020893,0.00010690,-0.00004010,-0.00004815,-0.00004016,-0.00001771,
 0.00004428,0.00018510,0.00001997,0.00001047,-0.00004634,0.00000403,-0.
 00001568,-0.00002566,0.00000860,-0.00004732,-0.00019842,0.00000319,0.0
 0001140,0.00003305,-0.22778065,0.25901047,-0.03314586,0.21873541,-0.00
 002925,0.00001790,-0.00000746,-0.00001159,0.00001607,0.00000257,0.0000
 1812,0.00000259,0.00000083,-0.00000731,-0.00001669,0.00000641,0.000228
 55,-0.00007406,0.00000869,0.00000217,0.00003754,-0.00001488,-0.0000032
 2,0.00000485,0.00002176,-0.00001624,-0.00001066,-0.00000287,0.00000525
 ,0.00000112,-0.00001836,-0.00005209,-0.00001486,-0.00001421,0.00001130
 ,0.00004164,-0.00001649,0.00001262,0.00003405,0.00000319,0.00000210,-0
 .00000245,-0.00000160,-0.00100329,0.00032621,-0.00060991,0.00053769,0.
 00006284,0.00011040,-0.00271325,-0.00234187,0.00477552,0.00107950,-0.0
 0060835,0.00036378,-0.00041106,0.00062773,-0.00005727,0.01607329,-0.01
 834542,0.00056384,0.00028746,0.00193541,-0.00055357,0.00045679,0.00086
 040,-0.00151758,-0.00047260,0.00022668,0.00050455,-0.00007115,0.000092
 56,-0.00008068,0.00055970,0.00006062,0.00037159,-0.00037133,-0.0003648
 3,-0.00057617,-0.00029098,-0.00016907,-0.00013374,0.00005465,0.0000480
 8,0.00006471,-0.00025131,0.00009775,-0.00027685,-0.00002749,-0.0005217
 9,-0.00020290,0.00067580,0.00032120,0.00015773,-0.00008216,-0.00003670
 ,-0.00005537,0.00001541,0.00010802,0.00032588,0.00003648,0.00000322,-0
 .00007184,0.00006880,-0.00001565,-0.00007176,0.00004604,-0.00013348,-0
 .00029424,0.00000155,0.00003546,0.00004118,0.22616787,-0.30658127,0.06
 715203,-0.24052679,0.32427518,0.00007029,-0.00002519,-0.00001031,0.000
 02350,-0.00002718,0.00000601,-0.00003213,0.00000236,0.00001969,-0.0000
 0645,0.00000290,-0.00001608,-0.00016460,0.00006971,-0.00011562,-0.0000
 0198,0.00000184,0.00002077,-0.00002332,0.00000067,0.00001292,0.0000171
 5,-0.00002299,0.00000221,-0.00001539,0.00000789,-0.00002695,0.00000505
 ,0.00006843,0.00000661,-0.00001938,-0.00003575,-0.00001022,-0.00003684
 ,-0.00006284,0.00000272,-0.00000345,0.00000296,-0.00001448,0.00053586,
 -0.00012512,0.00029061,-0.00022498,0.00003913,-0.00006445,0.00285857,0
 .00295320,-0.00497795,-0.00113896,0.00116581,0.00023387,0.00019947,-0.
 00004381,0.00024121,-0.01985585,0.02659146,-0.00621182,-0.00099055,-0.
 00022371,0.00001661,0.00063998,-0.00064355,0.00098451,-0.00015786,-0.0
 0018576,0.00008582,0.00008487,0.00000608,-0.00018725,0.00013659,0.0000
 6845,-0.00006330,0.00009949,-0.00001266,-0.00014913,-0.00040972,0.0000
 0682,-0.00013577,-0.00003051,-0.00003767,-0.00001238,-0.00019842,0.000
 32244,0.00026661,0.00022910,-0.00056411,-0.00006657,-0.00012716,-0.000
 07681,-0.00007442,-0.00000507,-0.00001452,0.00002630,0.00003691,0.0000
 6932,0.00009552,0.00000114,-0.00001410,-0.00002550,-0.00000744,-0.0000
 0021,-0.00001486,-0.00003513,-0.00007250,-0.00007267,0.00000135,0.0000
 0759,0.00000059,-0.00653792,0.04069830,-0.03053379,0.02508384,-0.06989
 688,0.04047091\\0.00000085,0.00000232,0.00000123,0.00000130,0.00000318
 ,0.00000183,0.00000042,0.00000170,0.00000065,0.00000141,0.00000143,0.0
 0000178,0.00000012,0.00000313,0.00000042,-0.00000063,0.00000436,-0.000
 00032,-0.00000108,0.00000381,-0.00000091,-0.00000019,0.00000526,0.0000
 0028,-0.00000114,0.00000497,-0.00000087,0.00000075,0.00000397,0.000001
 25,0.00000118,0.00000488,0.00000185,0.00000130,0.00000313,0.00000183,0
 .00000023,0.00000451,0.00000070,-0.00000053,0.00000200,-0.00000042,-0.
 00000105,0.00000161,-0.00000108,-0.00000004,0.00000070,0.,0.00000040,0
 .00000107,0.00000059,0.00000047,-0.00000014,0.00000053,-0.00000088,-0.
 00000040,-0.00000105,-0.00000140,0.00000043,-0.00000160,-0.00000036,-0
 .00000168,-0.00000059,-0.00000047,-0.00000160,-0.00000064,-0.00000080,
 -0.00000054,-0.00000101,0.00000007,-0.00000274,-0.00000023,0.00000043,
 -0.00000415,0.00000020,0.00000048,-0.00000430,0.00000020,0.00000090,-0
 .00000534,0.00000054,0.00000007,-0.00000307,-0.00000022,0.00000010,-0.
 00000319,-0.00000020,0.00000098,-0.00000528,0.00000059,0.00000122,-0.0
 0000615,0.00000086,-0.00000002,-0.00000269,-0.00000029,0.00000079,-0.0
 0000269,0.00000067,-0.00000035,-0.00000371,-0.00000077,-0.00000058,-0.
 00000123,-0.00000078,-0.00000053,-0.00000116,-0.00000074,-0.00000142,-
 0.00000090,-0.00000179,-0.00000199,-0.00000149,-0.00000248\\\@


 Everywhere is walking distance if you have the time.
                                    -- Steven Wright
 Job cpu time:       0 days  7 hours 44 minutes 11.6 seconds.
 File lengths (MBytes):  RWF=   1628 Int=      0 D2E=      0 Chk=     20 Scr=      2
 Normal termination of Gaussian 09 at Fri Aug 19 10:01:32 2022.
