 Entering Gaussian System, Link 0=g09
 Initial command:
 /home/software/gaussian//09.d01/l1.exe "/home/tntech.edu/jbthorn42/tmp/tmp.xGhOmSvXl5/Gau-788935.inp" -scrdir="/home/tntech.edu/jbthorn42/tmp/tmp.xGhOmSvXl5/"
 Default is to use a total of  16 processors:
                               16 via shared-memory
                                1 via Linda
 Entering Link 1 = /home/software/gaussian//09.d01/l1.exe PID=    788936.
  
 Copyright (c) 1988,1990,1992,1993,1995,1998,2003,2009,2013,
            Gaussian, Inc.  All Rights Reserved.
  
 This is part of the Gaussian(R) 09 program.  It is based on
 the Gaussian(R) 03 system (copyright 2003, Gaussian, Inc.),
 the Gaussian(R) 98 system (copyright 1998, Gaussian, Inc.),
 the Gaussian(R) 94 system (copyright 1995, Gaussian, Inc.),
 the Gaussian 92(TM) system (copyright 1992, Gaussian, Inc.),
 the Gaussian 90(TM) system (copyright 1990, Gaussian, Inc.),
 the Gaussian 88(TM) system (copyright 1988, Gaussian, Inc.),
 the Gaussian 86(TM) system (copyright 1986, Carnegie Mellon
 University), and the Gaussian 82(TM) system (copyright 1983,
 Carnegie Mellon University). Gaussian is a federally registered
 trademark of Gaussian, Inc.
  
 This software contains proprietary and confidential information,
 including trade secrets, belonging to Gaussian, Inc.
  
 This software is provided under written license and may be
 used, copied, transmitted, or stored only in accord with that
 written license.
  
 The following legend is applicable only to US Government
 contracts under FAR:
  
                    RESTRICTED RIGHTS LEGEND
  
 Use, reproduction and disclosure by the US Government is
 subject to restrictions as set forth in subparagraphs (a)
 and (c) of the Commercial Computer Software - Restricted
 Rights clause in FAR 52.227-19.
  
 Gaussian, Inc.
 340 Quinnipiac St., Bldg. 40, Wallingford CT 06492
  
  
 ---------------------------------------------------------------
 Warning -- This program may not be used in any manner that
 competes with the business of Gaussian, Inc. or will provide
 assistance to any competitor of Gaussian, Inc.  The licensee
 of this program is prohibited from giving any competitor of
 Gaussian, Inc. access to this program.  By using this program,
 the user acknowledges that Gaussian, Inc. is engaged in the
 business of creating and licensing software in the field of
 computational chemistry and represents and warrants to the
 licensee that it is not a competitor of Gaussian, Inc. and that
 it will not use this program in any manner prohibited above.
 ---------------------------------------------------------------
  

 Cite this work as:
 Gaussian 09, Revision D.01,
 M. J. Frisch, G. W. Trucks, H. B. Schlegel, G. E. Scuseria, 
 M. A. Robb, J. R. Cheeseman, G. Scalmani, V. Barone, B. Mennucci, 
 G. A. Petersson, H. Nakatsuji, M. Caricato, X. Li, H. P. Hratchian, 
 A. F. Izmaylov, J. Bloino, G. Zheng, J. L. Sonnenberg, M. Hada, 
 M. Ehara, K. Toyota, R. Fukuda, J. Hasegawa, M. Ishida, T. Nakajima, 
 Y. Honda, O. Kitao, H. Nakai, T. Vreven, J. A. Montgomery, Jr., 
 J. E. Peralta, F. Ogliaro, M. Bearpark, J. J. Heyd, E. Brothers, 
 K. N. Kudin, V. N. Staroverov, T. Keith, R. Kobayashi, J. Normand, 
 K. Raghavachari, A. Rendell, J. C. Burant, S. S. Iyengar, J. Tomasi, 
 M. Cossi, N. Rega, J. M. Millam, M. Klene, J. E. Knox, J. B. Cross, 
 V. Bakken, C. Adamo, J. Jaramillo, R. Gomperts, R. E. Stratmann, 
 O. Yazyev, A. J. Austin, R. Cammi, C. Pomelli, J. W. Ochterski, 
 R. L. Martin, K. Morokuma, V. G. Zakrzewski, G. A. Voth, 
 P. Salvador, J. J. Dannenberg, S. Dapprich, A. D. Daniels, 
 O. Farkas, J. B. Foresman, J. V. Ortiz, J. Cioslowski, 
 and D. J. Fox, Gaussian, Inc., Wallingford CT, 2013.
 
 ******************************************
 Gaussian 09:  ES64L-G09RevD.01 24-Apr-2013
                19-Aug-2022 
 ******************************************
 %chk=ChoCl.chk
 %nprocshared=16
 Will use up to   16 processors via shared memory.
 %mem=25MW
 ----------------------------------------------------------------------
 #p opt=verytight freq=(raman,savenormalmodes) b3lyp/6-311+g(d,p) nosym
 m guess=save scf=(xqc,tight)
 ----------------------------------------------------------------------
 1/7=1,14=-1,18=20,19=15,26=3,38=1/1,3;
 2/9=110,12=2,15=1,17=6,18=5,40=1/2;
 3/5=4,6=6,7=111,11=2,16=1,25=1,30=1,71=1,74=-5/1,2,3;
 4//1;
 5/5=2,8=3,13=1,32=2,38=5/2,8;
 6/7=2,8=2,9=2,10=2,28=1/1;
 7/30=1,92=1/1,2,3,16;
 1/7=1,14=-1,18=20,19=15,26=3/3(2);
 2/9=110,15=1/2;
 99//99;
 2/9=110,15=1/2;
 3/5=4,6=6,7=111,11=2,16=1,25=1,30=1,71=1,74=-5/1,2,3;
 4/5=5,16=3,69=1/1;
 5/5=2,8=3,13=1,32=2,38=5/2,8;
 7/30=1,92=1/1,2,3,16;
 1/7=1,14=-1,18=20,19=15,26=3/3(-5);
 2/9=110,15=1/2;
 6/7=2,8=2,9=2,10=2,19=2,28=1/1;
 99/9=1/99;
 Leave Link    1 at Fri Aug 19 08:36:19 2022, MaxMem=    26214400 cpu:         0.7
 (Enter /home/software/gaussian//09.d01/l101.exe)
 ----------
 Choline Cl
 ----------
 Symbolic Z-matrix:
 Charge =  0 Multiplicity = 1
 C                    -0.03829  -1.88113   0.38162 
 H                    -0.88097  -2.34092   0.90885 
 H                     0.86204  -1.93718   1.00076 
 H                     0.13362  -2.39333  -0.57041 
 N                    -0.34817  -0.45285   0.11617 
 C                    -0.72101   0.23282   1.40018 
 H                    -1.71448  -0.1249    1.69064 
 H                    -0.7128    1.32089   1.21666 
 H                     0.00266  -0.03715   2.17232 
 C                    -1.51226  -0.34032  -0.81243 
 H                    -2.35972  -0.89256  -0.39285 
 H                    -1.23156  -0.75937  -1.78387 
 H                    -1.75341   0.72333  -0.91375 
 C                     0.8242    0.22064  -0.57545 
 H                     0.43072   1.17494  -0.94359 
 H                     1.09878  -0.43192  -1.41336 
 C                     2.03763   0.56071   0.30225 
 H                     2.75475  -0.27067   0.34183 
 H                     1.72274   0.79042   1.33109 
 O                     2.69899   1.65335  -0.27004 
 H                     2.07512   2.40765  -0.21005 
 Cl                   -0.05307   3.25039   0.07316 
 
 Add virtual bond connecting atoms Cl22       and H8         Dist= 4.42D+00.
 Add virtual bond connecting atoms Cl22       and H15        Dist= 4.46D+00.
 Add virtual bond connecting atoms Cl22       and H21        Dist= 4.36D+00.
 NAtoms=     22 NQM=       22 NQMF=       0 NMMI=      0 NMMIF=      0
                NMic=       0 NMicF=      0.
                    Isotopes and Nuclear Properties:
 (Nuclear quadrupole moments (NQMom) in fm**2, nuclear magnetic moments (NMagM)
  in nuclear magnetons)

  Atom         1           2           3           4           5           6           7           8           9          10
 IAtWgt=          12           1           1           1          14          12           1           1           1          12
 AtmWgt=  12.0000000   1.0078250   1.0078250   1.0078250  14.0030740  12.0000000   1.0078250   1.0078250   1.0078250  12.0000000
 NucSpn=           0           1           1           1           2           0           1           1           1           0
 AtZEff=   0.0000000   0.0000000   0.0000000   0.0000000   0.0000000   0.0000000   0.0000000   0.0000000   0.0000000   0.0000000
 NQMom=    0.0000000   0.0000000   0.0000000   0.0000000   2.0440000   0.0000000   0.0000000   0.0000000   0.0000000   0.0000000
 NMagM=    0.0000000   2.7928460   2.7928460   2.7928460   0.4037610   0.0000000   2.7928460   2.7928460   2.7928460   0.0000000
 AtZNuc=   6.0000000   1.0000000   1.0000000   1.0000000   7.0000000   6.0000000   1.0000000   1.0000000   1.0000000   6.0000000

  Atom        11          12          13          14          15          16          17          18          19          20
 IAtWgt=           1           1           1          12           1           1          12           1           1          16
 AtmWgt=   1.0078250   1.0078250   1.0078250  12.0000000   1.0078250   1.0078250  12.0000000   1.0078250   1.0078250  15.9949146
 NucSpn=           1           1           1           0           1           1           0           1           1           0
 AtZEff=   0.0000000   0.0000000   0.0000000   0.0000000   0.0000000   0.0000000   0.0000000   0.0000000   0.0000000   0.0000000
 NQMom=    0.0000000   0.0000000   0.0000000   0.0000000   0.0000000   0.0000000   0.0000000   0.0000000   0.0000000   0.0000000
 NMagM=    2.7928460   2.7928460   2.7928460   0.0000000   2.7928460   2.7928460   0.0000000   2.7928460   2.7928460   0.0000000
 AtZNuc=   1.0000000   1.0000000   1.0000000   6.0000000   1.0000000   1.0000000   6.0000000   1.0000000   1.0000000   8.0000000

  Atom        21          22
 IAtWgt=           1          35
 AtmWgt=   1.0078250  34.9688527
 NucSpn=           1           3
 AtZEff=   0.0000000   0.0000000
 NQMom=    0.0000000  -8.1650000
 NMagM=    2.7928460   0.8218740
 AtZNuc=   1.0000000  17.0000000
 Leave Link  101 at Fri Aug 19 08:36:19 2022, MaxMem=    26214400 cpu:         0.9
 (Enter /home/software/gaussian//09.d01/l103.exe)

 GradGradGradGradGradGradGradGradGradGradGradGradGradGradGradGradGradGrad
 Berny optimization.
 Initialization pass.
                           ----------------------------
                           !    Initial Parameters    !
                           ! (Angstroms and Degrees)  !
 --------------------------                            --------------------------
 ! Name  Definition              Value          Derivative Info.                !
 --------------------------------------------------------------------------------
 ! R1    R(1,2)                  1.0952         estimate D2E/DX2                !
 ! R2    R(1,3)                  1.0941         estimate D2E/DX2                !
 ! R3    R(1,4)                  1.0947         estimate D2E/DX2                !
 ! R4    R(1,5)                  1.4854         estimate D2E/DX2                !
 ! R5    R(5,6)                  1.5026         estimate D2E/DX2                !
 ! R6    R(5,10)                 1.4933         estimate D2E/DX2                !
 ! R7    R(5,14)                 1.5187         estimate D2E/DX2                !
 ! R8    R(6,7)                  1.0951         estimate D2E/DX2                !
 ! R9    R(6,8)                  1.1035         estimate D2E/DX2                !
 ! R10   R(6,9)                  1.0922         estimate D2E/DX2                !
 ! R11   R(8,22)                 2.3379         estimate D2E/DX2                !
 ! R12   R(10,11)                1.0951         estimate D2E/DX2                !
 ! R13   R(10,12)                1.0946         estimate D2E/DX2                !
 ! R14   R(10,13)                1.0953         estimate D2E/DX2                !
 ! R15   R(14,15)                1.0959         estimate D2E/DX2                !
 ! R16   R(14,16)                1.097          estimate D2E/DX2                !
 ! R17   R(14,17)                1.5357         estimate D2E/DX2                !
 ! R18   R(15,22)                2.3612         estimate D2E/DX2                !
 ! R19   R(17,18)                1.0986         estimate D2E/DX2                !
 ! R20   R(17,19)                1.1002         estimate D2E/DX2                !
 ! R21   R(17,20)                1.3996         estimate D2E/DX2                !
 ! R22   R(20,21)                0.9807         estimate D2E/DX2                !
 ! R23   R(21,22)                2.3064         estimate D2E/DX2                !
 ! A1    A(2,1,3)              109.8291         estimate D2E/DX2                !
 ! A2    A(2,1,4)              110.0643         estimate D2E/DX2                !
 ! A3    A(2,1,5)              109.2194         estimate D2E/DX2                !
 ! A4    A(3,1,4)              109.8134         estimate D2E/DX2                !
 ! A5    A(3,1,5)              108.7872         estimate D2E/DX2                !
 ! A6    A(4,1,5)              109.1022         estimate D2E/DX2                !
 ! A7    A(1,5,6)              109.7443         estimate D2E/DX2                !
 ! A8    A(1,5,10)             110.2549         estimate D2E/DX2                !
 ! A9    A(1,5,14)             110.2888         estimate D2E/DX2                !
 ! A10   A(6,5,10)             107.6711         estimate D2E/DX2                !
 ! A11   A(6,5,14)             112.2308         estimate D2E/DX2                !
 ! A12   A(10,5,14)            106.5688         estimate D2E/DX2                !
 ! A13   A(5,6,7)              107.6187         estimate D2E/DX2                !
 ! A14   A(5,6,8)              107.8176         estimate D2E/DX2                !
 ! A15   A(5,6,9)              109.0819         estimate D2E/DX2                !
 ! A16   A(7,6,8)              111.898          estimate D2E/DX2                !
 ! A17   A(7,6,9)              109.4415         estimate D2E/DX2                !
 ! A18   A(8,6,9)              110.879          estimate D2E/DX2                !
 ! A19   A(6,8,22)             153.7974         estimate D2E/DX2                !
 ! A20   A(5,10,11)            109.0871         estimate D2E/DX2                !
 ! A21   A(5,10,12)            108.852          estimate D2E/DX2                !
 ! A22   A(5,10,13)            107.5968         estimate D2E/DX2                !
 ! A23   A(11,10,12)           110.2084         estimate D2E/DX2                !
 ! A24   A(11,10,13)           110.7788         estimate D2E/DX2                !
 ! A25   A(12,10,13)           110.2508         estimate D2E/DX2                !
 ! A26   A(5,14,15)            105.1879         estimate D2E/DX2                !
 ! A27   A(5,14,16)            106.0982         estimate D2E/DX2                !
 ! A28   A(5,14,17)            116.6086         estimate D2E/DX2                !
 ! A29   A(15,14,16)           110.5658         estimate D2E/DX2                !
 ! A30   A(15,14,17)           106.4301         estimate D2E/DX2                !
 ! A31   A(16,14,17)           111.7468         estimate D2E/DX2                !
 ! A32   A(14,15,22)           133.9719         estimate D2E/DX2                !
 ! A33   A(14,17,18)           111.6397         estimate D2E/DX2                !
 ! A34   A(14,17,19)           110.7651         estimate D2E/DX2                !
 ! A35   A(14,17,20)           108.2136         estimate D2E/DX2                !
 ! A36   A(18,17,19)           108.1277         estimate D2E/DX2                !
 ! A37   A(18,17,20)           107.2815         estimate D2E/DX2                !
 ! A38   A(19,17,20)           110.7706         estimate D2E/DX2                !
 ! A39   A(17,20,21)           105.953          estimate D2E/DX2                !
 ! A40   A(20,21,22)           151.108          estimate D2E/DX2                !
 ! A41   A(8,22,15)             62.8067         estimate D2E/DX2                !
 ! A42   A(8,22,21)             91.0819         estimate D2E/DX2                !
 ! A43   A(15,22,21)            55.7296         estimate D2E/DX2                !
 ! D1    D(2,1,5,6)             54.038          estimate D2E/DX2                !
 ! D2    D(2,1,5,10)           -64.4009         estimate D2E/DX2                !
 ! D3    D(2,1,5,14)           178.1804         estimate D2E/DX2                !
 ! D4    D(3,1,5,6)            -65.8328         estimate D2E/DX2                !
 ! D5    D(3,1,5,10)           175.7284         estimate D2E/DX2                !
 ! D6    D(3,1,5,14)            58.3096         estimate D2E/DX2                !
 ! D7    D(4,1,5,6)            174.3847         estimate D2E/DX2                !
 ! D8    D(4,1,5,10)            55.9458         estimate D2E/DX2                !
 ! D9    D(4,1,5,14)           -61.4729         estimate D2E/DX2                !
 ! D10   D(1,5,6,7)            -72.1824         estimate D2E/DX2                !
 ! D11   D(1,5,6,8)            166.9472         estimate D2E/DX2                !
 ! D12   D(1,5,6,9)             46.4631         estimate D2E/DX2                !
 ! D13   D(10,5,6,7)            47.8431         estimate D2E/DX2                !
 ! D14   D(10,5,6,8)           -73.0273         estimate D2E/DX2                !
 ! D15   D(10,5,6,9)           166.4886         estimate D2E/DX2                !
 ! D16   D(14,5,6,7)           164.8137         estimate D2E/DX2                !
 ! D17   D(14,5,6,8)            43.9434         estimate D2E/DX2                !
 ! D18   D(14,5,6,9)           -76.5407         estimate D2E/DX2                !
 ! D19   D(1,5,10,11)           55.2674         estimate D2E/DX2                !
 ! D20   D(1,5,10,12)          -65.0241         estimate D2E/DX2                !
 ! D21   D(1,5,10,13)          175.5041         estimate D2E/DX2                !
 ! D22   D(6,5,10,11)          -64.4344         estimate D2E/DX2                !
 ! D23   D(6,5,10,12)          175.2741         estimate D2E/DX2                !
 ! D24   D(6,5,10,13)           55.8023         estimate D2E/DX2                !
 ! D25   D(14,5,10,11)         174.9642         estimate D2E/DX2                !
 ! D26   D(14,5,10,12)          54.6727         estimate D2E/DX2                !
 ! D27   D(14,5,10,13)         -64.7991         estimate D2E/DX2                !
 ! D28   D(1,5,14,15)          166.8243         estimate D2E/DX2                !
 ! D29   D(1,5,14,16)           49.6179         estimate D2E/DX2                !
 ! D30   D(1,5,14,17)          -75.5436         estimate D2E/DX2                !
 ! D31   D(6,5,14,15)          -70.4791         estimate D2E/DX2                !
 ! D32   D(6,5,14,16)          172.3145         estimate D2E/DX2                !
 ! D33   D(6,5,14,17)           47.153          estimate D2E/DX2                !
 ! D34   D(10,5,14,15)          47.1494         estimate D2E/DX2                !
 ! D35   D(10,5,14,16)         -70.057          estimate D2E/DX2                !
 ! D36   D(10,5,14,17)         164.7816         estimate D2E/DX2                !
 ! D37   D(5,6,8,22)           -23.3581         estimate D2E/DX2                !
 ! D38   D(7,6,8,22)          -141.5122         estimate D2E/DX2                !
 ! D39   D(9,6,8,22)            95.9904         estimate D2E/DX2                !
 ! D40   D(6,8,22,15)           12.4292         estimate D2E/DX2                !
 ! D41   D(6,8,22,21)          -37.5632         estimate D2E/DX2                !
 ! D42   D(5,14,15,22)          77.8343         estimate D2E/DX2                !
 ! D43   D(16,14,15,22)       -168.0406         estimate D2E/DX2                !
 ! D44   D(17,14,15,22)        -46.4926         estimate D2E/DX2                !
 ! D45   D(5,14,17,18)          89.0849         estimate D2E/DX2                !
 ! D46   D(5,14,17,19)         -31.473          estimate D2E/DX2                !
 ! D47   D(5,14,17,20)        -153.076          estimate D2E/DX2                !
 ! D48   D(15,14,17,18)       -153.9647         estimate D2E/DX2                !
 ! D49   D(15,14,17,19)         85.4774         estimate D2E/DX2                !
 ! D50   D(15,14,17,20)        -36.1256         estimate D2E/DX2                !
 ! D51   D(16,14,17,18)        -33.1724         estimate D2E/DX2                !
 ! D52   D(16,14,17,19)       -153.7302         estimate D2E/DX2                !
 ! D53   D(16,14,17,20)         84.6667         estimate D2E/DX2                !
 ! D54   D(14,15,22,8)         -43.4975         estimate D2E/DX2                !
 ! D55   D(14,15,22,21)         68.5749         estimate D2E/DX2                !
 ! D56   D(14,17,20,21)         65.1874         estimate D2E/DX2                !
 ! D57   D(18,17,20,21)       -174.2191         estimate D2E/DX2                !
 ! D58   D(19,17,20,21)        -56.4122         estimate D2E/DX2                !
 ! D59   D(17,20,21,22)        -18.0799         estimate D2E/DX2                !
 ! D60   D(20,21,22,8)          23.8344         estimate D2E/DX2                !
 ! D61   D(20,21,22,15)        -31.6961         estimate D2E/DX2                !
 --------------------------------------------------------------------------------
 Trust Radius=3.00D-01 FncErr=1.00D-07 GrdErr=1.00D-06
 Number of steps in this run=    132 maximum allowed number of steps=    132.
 GradGradGradGradGradGradGradGradGradGradGradGradGradGradGradGradGradGrad

 Leave Link  103 at Fri Aug 19 08:36:19 2022, MaxMem=    26214400 cpu:         0.0
 (Enter /home/software/gaussian//09.d01/l202.exe)
                          Input orientation:                          
 ---------------------------------------------------------------------
 Center     Atomic      Atomic             Coordinates (Angstroms)
 Number     Number       Type             X           Y           Z
 ---------------------------------------------------------------------
      1          6           0       -0.038289   -1.881127    0.381617
      2          1           0       -0.880969   -2.340919    0.908854
      3          1           0        0.862036   -1.937179    1.000765
      4          1           0        0.133624   -2.393331   -0.570414
      5          7           0       -0.348168   -0.452850    0.116165
      6          6           0       -0.721014    0.232824    1.400181
      7          1           0       -1.714478   -0.124901    1.690640
      8          1           0       -0.712802    1.320894    1.216661
      9          1           0        0.002664   -0.037151    2.172319
     10          6           0       -1.512257   -0.340322   -0.812430
     11          1           0       -2.359719   -0.892562   -0.392852
     12          1           0       -1.231563   -0.759373   -1.783873
     13          1           0       -1.753413    0.723334   -0.913752
     14          6           0        0.824195    0.220636   -0.575447
     15          1           0        0.430723    1.174944   -0.943591
     16          1           0        1.098776   -0.431917   -1.413356
     17          6           0        2.037633    0.560708    0.302250
     18          1           0        2.754753   -0.270669    0.341825
     19          1           0        1.722740    0.790422    1.331090
     20          8           0        2.698989    1.653351   -0.270037
     21          1           0        2.075119    2.407648   -0.210046
     22         17           0       -0.053068    3.250390    0.073161
 ---------------------------------------------------------------------
                    Distance matrix (angstroms):
                    1          2          3          4          5
     1  C    0.000000
     2  H    1.095216   0.000000
     3  H    1.094107   1.791513   0.000000
     4  H    1.094655   1.794542   1.790883   0.000000
     5  N    1.485417   2.115901   2.109584   2.113996   0.000000
     6  C    2.443844   2.625098   2.715602   3.392689   1.502618
     7  H    2.758166   2.493324   3.224702   3.697786   2.110290
     8  H    3.377159   3.678573   3.625157   4.207795   2.119013
     9  H    2.570708   2.772093   2.391896   3.618193   2.126889
    10  C    2.443851   2.713620   3.387462   2.642412   1.493337
    11  H    2.639337   2.445174   3.662390   2.915578   2.121033
    12  H    2.715066   3.142449   3.677580   2.450722   2.117661
    13  H    3.376810   3.670517   4.193361   3.659561   2.102106
    14  C    2.465209   3.416474   2.672460   2.703653   1.518666
    15  H    3.363884   4.184899   3.694842   3.600016   2.092718
    16  H    2.571975   3.599491   2.854792   2.342907   2.105592
    17  C    3.205980   4.160005   2.847699   3.621207   2.598841
    18  H    3.224320   4.222077   2.606499   3.494022   3.116445
    19  H    3.337648   4.094250   2.879190   4.034512   2.703780
    20  O    4.517729   5.491819   4.228621   4.800725   3.724299
    21  H    4.817691   5.704321   4.670670   5.191211   3.763135
    22  Cl   5.140801   5.713715   5.348714   5.683364   3.715228
                    6          7          8          9         10
     6  C    0.000000
     7  H    1.095128   0.000000
     8  H    1.103469   1.821630   0.000000
     9  H    1.092151   1.785579   1.808165   0.000000
    10  C    2.418721   2.520448   2.741528   3.360896   0.000000
    11  H    2.677091   2.312267   3.194097   3.590638   1.095083
    12  H    3.373917   3.564828   3.687794   4.206706   1.094575
    13  H    2.580840   2.739320   2.445119   3.631250   1.095348
    14  C    2.508172   3.420440   2.604722   2.879511   2.414507
    15  H    2.776212   3.637397   2.448600   3.370653   2.467469
    16  H    3.416066   4.200410   3.642959   3.770195   2.680857
    17  C    2.987155   4.059067   2.996485   2.827666   3.828327
    18  H    3.668048   4.670608   3.914377   3.313493   4.420920
    19  H    2.507513   3.575131   2.495267   2.085954   4.042087
    20  O    4.062505   5.146370   3.736458   4.011617   4.690790
    21  H    3.891150   4.938366   3.314971   3.993467   4.558889
    22  Cl   3.363456   4.095010   2.337904   3.900961   3.975766
                   11         12         13         14         15
    11  H    0.000000
    12  H    1.795944   0.000000
    13  H    1.802793   1.796624   0.000000
    14  C    3.377848   2.578149   2.647871   0.000000
    15  H    3.516314   2.685303   2.230536   1.095926   0.000000
    16  H    3.635218   2.382224   3.117562   1.096956   1.802492
    17  C    4.683147   4.096604   3.984613   1.535719   2.124045
    18  H    5.204260   4.544022   4.784148   2.193131   3.023774
    19  H    4.740346   4.564292   4.138533   2.183328   2.644114
    20  O    5.664564   4.854089   4.593820   2.379244   2.414038
    21  H    5.531057   4.841601   4.241435   2.545850   2.182129
    22  Cl   4.764647   4.573360   3.201747   3.220201   2.361210
                   16         17         18         19         20
    16  H    0.000000
    17  C    2.193185   0.000000
    18  H    2.418454   1.098642   0.000000
    19  H    3.068457   1.100199   1.780340   0.000000
    20  O    2.866392   1.399562   2.019737   2.064296   0.000000
    21  H    3.234862   1.917039   2.817773   2.261568   0.980702
    22  Cl   4.134714   3.414367   4.511529   3.284406   3.200334
                   21         22
    21  H    0.000000
    22  Cl   2.306426   0.000000
 Symmetry turned off by external request.
 Stoichiometry    C5H14ClNO
 Framework group  C1[X(C5H14ClNO)]
 Deg. of freedom    60
 Full point group                 C1      NOp   1
 Rotational constants (GHZ):      1.8844746      1.0711989      0.8116440
 Leave Link  202 at Fri Aug 19 08:36:19 2022, MaxMem=    26214400 cpu:         0.7
 (Enter /home/software/gaussian//09.d01/l301.exe)
 Standard basis: 6-311+G(d,p) (5D, 7F)
 Ernie: Thresh=  0.10000D-02 Tol=  0.10000D-05 Strict=F.
   268 basis functions,   417 primitive gaussians,   276 cartesian basis functions
    38 alpha electrons       38 beta electrons
       nuclear repulsion energy       502.3651010919 Hartrees.
 IExCor=  402 DFT=T Ex+Corr=B3LYP ExCW=0 ScaHFX=  0.200000
 ScaDFX=  0.800000  0.720000  1.000000  0.810000 ScalE2=  1.000000  1.000000
 IRadAn=      0 IRanWt=     -1 IRanGd=            0 ICorTp=0 IEmpDi=  4
 NAtoms=   22 NActive=   22 NUniq=   22 SFac= 1.00D+00 NAtFMM=   60 NAOKFM=F Big=F
 Integral buffers will be    131072 words long.
 Raffenetti 2 integral format.
 Two-electron integral symmetry is turned off.
 Leave Link  301 at Fri Aug 19 08:36:20 2022, MaxMem=    26214400 cpu:         0.5
 (Enter /home/software/gaussian//09.d01/l302.exe)
 NPDir=0 NMtPBC=     1 NCelOv=     1 NCel=       1 NClECP=     1 NCelD=      1
         NCelK=      1 NCelE2=     1 NClLst=     1 CellRange=     0.0.
 One-electron integrals computed using PRISM.
 PrsmSu:  requested number of processors reduced to:   7 ShMem   1 Linda.
 NBasis=   268 RedAO= T EigKep=  2.97D-05  NBF=   268
 NBsUse=   268 1.00D-06 EigRej= -1.00D+00 NBFU=   268
 Precomputing XC quadrature grid using
 IXCGrd= 4 IRadAn=           0 IRanWt=          -1 IRanGd=           0 AccXCQ= 0.00D+00.
 Generated NRdTot=       0 NPtTot=           0 NUsed=           0 NTot=          32
 NSgBfM=   276   276   276   276   276 MxSgAt=    22 MxSgA2=    22.
 Leave Link  302 at Fri Aug 19 08:36:20 2022, MaxMem=    26214400 cpu:         6.1
 (Enter /home/software/gaussian//09.d01/l303.exe)
 DipDrv:  MaxL=1.
 Leave Link  303 at Fri Aug 19 08:36:20 2022, MaxMem=    26214400 cpu:         1.3
 (Enter /home/software/gaussian//09.d01/l401.exe)
 ExpMin= 4.38D-02 ExpMax= 1.06D+05 ExpMxC= 3.62D+03 IAcc=2 IRadAn=         4 AccDes= 0.00D+00
 Harris functional with IExCor=  402 and IRadAn=       4 diagonalized for initial guess.
 HarFok:  IExCor=  402 AccDes= 0.00D+00 IRadAn=         4 IDoV= 1 UseB2=F ITyADJ=14
 ICtDFT=  3500011 ScaDFX=  1.000000  1.000000  1.000000  1.000000
 FoFCou: FMM=F IPFlag=           0 FMFlag=      100000 FMFlg1=           0
         NFxFlg=           0 DoJE=T BraDBF=F KetDBF=T FulRan=T
         wScrn=  0.000000 ICntrl=     500 IOpCl=  0 I1Cent=   200000004 NGrid=           0
         NMat0=    1 NMatS0=      1 NMatT0=    0 NMatD0=    1 NMtDS0=    0 NMtDT0=    0
 Symmetry not used in FoFCou.
 Harris En= -789.200391023710    
 JPrj=0 DoOrth=F DoCkMO=F.
 Leave Link  401 at Fri Aug 19 08:36:21 2022, MaxMem=    26214400 cpu:        11.6
 (Enter /home/software/gaussian//09.d01/l502.exe)
 Closed shell SCF:
 Using DIIS extrapolation, IDIIS=  1040.
 Two-electron integral symmetry not used.
 IVT=      240586 IEndB=      240586 NGot=    26214400 MDV=    26054491
 LenX=    26054491 LenY=    25977874
 Requested convergence on RMS density matrix=1.00D-08 within  64 cycles.
 Requested convergence on MAX density matrix=1.00D-06.
 Requested convergence on             energy=1.00D-06.
 No special actions if energy rises.
 Fock matrices will be formed incrementally for  20 cycles.

 Cycle   1  Pass 1  IDiag  1:
 FoFJK:  IHMeth= 1 ICntrl=       0 DoSepK=F KAlg= 0 I1Cent=   0 FoldK=F
 IRaf= 940000000 NMat=   1 IRICut=       1 DoRegI=T DoRafI=F ISym2E= 0.
 FoFCou: FMM=F IPFlag=           0 FMFlag=      100000 FMFlg1=           0
         NFxFlg=           0 DoJE=F BraDBF=F KetDBF=F FulRan=T
         wScrn=  0.000000 ICntrl=       0 IOpCl=  0 I1Cent=           0 NGrid=           0
         NMat0=    1 NMatS0=      1 NMatT0=    0 NMatD0=    1 NMtDS0=    0 NMtDT0=    0
 Symmetry not used in FoFCou.
 E= -789.001765960721    
 DIIS: error= 2.39D-02 at cycle   1 NSaved=   1.
 NSaved= 1 IEnMin= 1 EnMin= -789.001765960721     IErMin= 1 ErrMin= 2.39D-02
 ErrMax= 2.39D-02  0.00D+00 EMaxC= 1.00D-01 BMatC= 2.95D-01 BMatP= 2.95D-01
 IDIUse=3 WtCom= 7.61D-01 WtEn= 2.39D-01
 Coeff-Com:  0.100D+01
 Coeff-En:   0.100D+01
 Coeff:      0.100D+01
 Gap=     0.163 Goal=   None    Shift=    0.000
 GapD=    0.163 DampG=1.000 DampE=0.500 DampFc=0.5000 IDamp=-1.
 Damping current iteration by 5.00D-01
 RMSDP=1.20D-02 MaxDP=1.54D+00              OVMax= 2.21D-01

 Cycle   2  Pass 1  IDiag  1:
 RMSU=  5.96D-03    CP:  1.04D+00
 E= -789.090772341812     Delta-E=       -0.089006381091 Rises=F Damp=T
 DIIS: error= 7.64D-03 at cycle   2 NSaved=   2.
 NSaved= 2 IEnMin= 2 EnMin= -789.090772341812     IErMin= 2 ErrMin= 7.64D-03
 ErrMax= 7.64D-03  0.00D+00 EMaxC= 1.00D-01 BMatC= 3.48D-02 BMatP= 2.95D-01
 IDIUse=3 WtCom= 9.24D-01 WtEn= 7.64D-02
 Coeff-Com:  0.123D+00 0.877D+00
 Coeff-En:   0.220D+00 0.780D+00
 Coeff:      0.130D+00 0.870D+00
 Gap=     0.255 Goal=   None    Shift=    0.000
 RMSDP=3.32D-03 MaxDP=3.96D-01 DE=-8.90D-02 OVMax= 1.69D-01

 Cycle   3  Pass 1  IDiag  1:
 RMSU=  2.63D-03    CP:  1.03D+00  6.62D-01
 E= -789.223177755681     Delta-E=       -0.132405413869 Rises=F Damp=F
 DIIS: error= 8.11D-03 at cycle   3 NSaved=   3.
 NSaved= 3 IEnMin= 3 EnMin= -789.223177755681     IErMin= 2 ErrMin= 7.64D-03
 ErrMax= 8.11D-03  0.00D+00 EMaxC= 1.00D-01 BMatC= 1.78D-02 BMatP= 3.48D-02
 IDIUse=3 WtCom= 9.19D-01 WtEn= 8.11D-02
 Coeff-Com: -0.229D-01 0.402D+00 0.620D+00
 Coeff-En:   0.000D+00 0.000D+00 0.100D+01
 Coeff:     -0.210D-01 0.370D+00 0.651D+00
 Gap=     0.175 Goal=   None    Shift=    0.000
 RMSDP=7.53D-04 MaxDP=2.24D-02 DE=-1.32D-01 OVMax= 3.65D-02

 Cycle   4  Pass 1  IDiag  1:
 RMSU=  6.49D-04    CP:  1.04D+00  6.84D-01  8.69D-01
 E= -789.232519220761     Delta-E=       -0.009341465081 Rises=F Damp=F
 DIIS: error= 3.80D-03 at cycle   4 NSaved=   4.
 NSaved= 4 IEnMin= 4 EnMin= -789.232519220761     IErMin= 4 ErrMin= 3.80D-03
 ErrMax= 3.80D-03  0.00D+00 EMaxC= 1.00D-01 BMatC= 4.58D-03 BMatP= 1.78D-02
 IDIUse=3 WtCom= 9.62D-01 WtEn= 3.80D-02
 Coeff-Com: -0.212D-01 0.106D+00 0.371D+00 0.544D+00
 Coeff-En:   0.000D+00 0.000D+00 0.240D+00 0.760D+00
 Coeff:     -0.204D-01 0.102D+00 0.366D+00 0.552D+00
 Gap=     0.170 Goal=   None    Shift=    0.000
 RMSDP=4.90D-04 MaxDP=5.26D-02 DE=-9.34D-03 OVMax= 1.28D-02

 Cycle   5  Pass 1  IDiag  1:
 RMSU=  2.27D-04    CP:  1.03D+00  6.30D-01  8.77D-01  5.95D-01
 E= -789.236326097163     Delta-E=       -0.003806876402 Rises=F Damp=F
 DIIS: error= 4.45D-04 at cycle   5 NSaved=   5.
 NSaved= 5 IEnMin= 5 EnMin= -789.236326097163     IErMin= 5 ErrMin= 4.45D-04
 ErrMax= 4.45D-04  0.00D+00 EMaxC= 1.00D-01 BMatC= 6.32D-05 BMatP= 4.58D-03
 IDIUse=3 WtCom= 9.96D-01 WtEn= 4.45D-03
 Coeff-Com: -0.651D-02 0.165D-01 0.871D-01 0.190D+00 0.713D+00
 Coeff-En:   0.000D+00 0.000D+00 0.000D+00 0.000D+00 0.100D+01
 Coeff:     -0.648D-02 0.164D-01 0.867D-01 0.189D+00 0.714D+00
 Gap=     0.170 Goal=   None    Shift=    0.000
 RMSDP=1.40D-04 MaxDP=1.25D-02 DE=-3.81D-03 OVMax= 1.41D-03

 Cycle   6  Pass 1  IDiag  1:
 RMSU=  4.38D-05    CP:  1.03D+00  6.44D-01  9.04D-01  6.27D-01  6.97D-01
 E= -789.236371277861     Delta-E=       -0.000045180699 Rises=F Damp=F
 DIIS: error= 1.66D-04 at cycle   6 NSaved=   6.
 NSaved= 6 IEnMin= 6 EnMin= -789.236371277861     IErMin= 6 ErrMin= 1.66D-04
 ErrMax= 1.66D-04  0.00D+00 EMaxC= 1.00D-01 BMatC= 7.35D-06 BMatP= 6.32D-05
 IDIUse=3 WtCom= 9.98D-01 WtEn= 1.66D-03
 Coeff-Com: -0.253D-02 0.464D-02 0.301D-01 0.758D-01 0.371D+00 0.521D+00
 Coeff-En:   0.000D+00 0.000D+00 0.000D+00 0.000D+00 0.000D+00 0.100D+01
 Coeff:     -0.253D-02 0.463D-02 0.300D-01 0.757D-01 0.370D+00 0.522D+00
 Gap=     0.170 Goal=   None    Shift=    0.000
 RMSDP=2.31D-05 MaxDP=1.16D-03 DE=-4.52D-05 OVMax= 4.20D-04

 Cycle   7  Pass 1  IDiag  1:
 RMSU=  1.23D-05    CP:  1.03D+00  6.42D-01  9.00D-01  6.31D-01  7.28D-01
                    CP:  7.66D-01
 E= -789.236377323178     Delta-E=       -0.000006045317 Rises=F Damp=F
 DIIS: error= 3.23D-05 at cycle   7 NSaved=   7.
 NSaved= 7 IEnMin= 7 EnMin= -789.236377323178     IErMin= 7 ErrMin= 3.23D-05
 ErrMax= 3.23D-05  0.00D+00 EMaxC= 1.00D-01 BMatC= 4.13D-07 BMatP= 7.35D-06
 IDIUse=1 WtCom= 1.00D+00 WtEn= 0.00D+00
 Coeff-Com: -0.397D-03 0.102D-03 0.416D-02 0.134D-01 0.843D-01 0.231D+00
 Coeff-Com:  0.667D+00
 Coeff:     -0.397D-03 0.102D-03 0.416D-02 0.134D-01 0.843D-01 0.231D+00
 Coeff:      0.667D+00
 Gap=     0.170 Goal=   None    Shift=    0.000
 RMSDP=1.06D-05 MaxDP=1.16D-03 DE=-6.05D-06 OVMax= 1.07D-04

 Cycle   8  Pass 1  IDiag  1:
 RMSU=  2.96D-06    CP:  1.03D+00  6.41D-01  8.98D-01  6.31D-01  7.49D-01
                    CP:  7.42D-01  9.20D-01
 E= -789.236377629527     Delta-E=       -0.000000306348 Rises=F Damp=F
 DIIS: error= 1.04D-05 at cycle   8 NSaved=   8.
 NSaved= 8 IEnMin= 8 EnMin= -789.236377629527     IErMin= 8 ErrMin= 1.04D-05
 ErrMax= 1.04D-05  0.00D+00 EMaxC= 1.00D-01 BMatC= 4.45D-08 BMatP= 4.13D-07
 IDIUse=1 WtCom= 1.00D+00 WtEn= 0.00D+00
 Coeff-Com:  0.468D-05-0.225D-03-0.129D-03 0.102D-02 0.137D-01 0.786D-01
 Coeff-Com:  0.338D+00 0.569D+00
 Coeff:      0.468D-05-0.225D-03-0.129D-03 0.102D-02 0.137D-01 0.786D-01
 Coeff:      0.338D+00 0.569D+00
 Gap=     0.170 Goal=   None    Shift=    0.000
 RMSDP=3.18D-06 MaxDP=1.45D-04 DE=-3.06D-07 OVMax= 4.33D-05

 Cycle   9  Pass 1  IDiag  1:
 RMSU=  8.99D-07    CP:  1.03D+00  6.41D-01  8.99D-01  6.30D-01  7.42D-01
                    CP:  7.72D-01  9.31D-01  8.29D-01
 E= -789.236377666780     Delta-E=       -0.000000037253 Rises=F Damp=F
 DIIS: error= 2.63D-06 at cycle   9 NSaved=   9.
 NSaved= 9 IEnMin= 9 EnMin= -789.236377666780     IErMin= 9 ErrMin= 2.63D-06
 ErrMax= 2.63D-06  0.00D+00 EMaxC= 1.00D-01 BMatC= 3.19D-09 BMatP= 4.45D-08
 IDIUse=1 WtCom= 1.00D+00 WtEn= 0.00D+00
 Coeff-Com:  0.333D-04-0.110D-03-0.365D-03-0.554D-03-0.168D-02 0.126D-01
 Coeff-Com:  0.854D-01 0.264D+00 0.640D+00
 Coeff:      0.333D-04-0.110D-03-0.365D-03-0.554D-03-0.168D-02 0.126D-01
 Coeff:      0.854D-01 0.264D+00 0.640D+00
 Gap=     0.170 Goal=   None    Shift=    0.000
 RMSDP=5.32D-07 MaxDP=2.03D-05 DE=-3.73D-08 OVMax= 1.09D-05

 Cycle  10  Pass 1  IDiag  1:
 RMSU=  2.50D-07    CP:  1.03D+00  6.41D-01  8.99D-01  6.30D-01  7.41D-01
                    CP:  7.78D-01  9.37D-01  7.81D-01  8.52D-01
 E= -789.236377669574     Delta-E=       -0.000000002794 Rises=F Damp=F
 DIIS: error= 6.23D-07 at cycle  10 NSaved=  10.
 NSaved=10 IEnMin=10 EnMin= -789.236377669574     IErMin=10 ErrMin= 6.23D-07
 ErrMax= 6.23D-07  0.00D+00 EMaxC= 1.00D-01 BMatC= 8.47D-11 BMatP= 3.19D-09
 IDIUse=1 WtCom= 1.00D+00 WtEn= 0.00D+00
 Coeff-Com:  0.121D-04-0.249D-04-0.140D-03-0.281D-03-0.154D-02-0.458D-03
 Coeff-Com:  0.921D-02 0.608D-01 0.204D+00 0.729D+00
 Coeff:      0.121D-04-0.249D-04-0.140D-03-0.281D-03-0.154D-02-0.458D-03
 Coeff:      0.921D-02 0.608D-01 0.204D+00 0.729D+00
 Gap=     0.170 Goal=   None    Shift=    0.000
 RMSDP=1.92D-07 MaxDP=7.53D-06 DE=-2.79D-09 OVMax= 2.44D-06

 Cycle  11  Pass 1  IDiag  1:
 RMSU=  4.41D-08    CP:  1.03D+00  6.41D-01  8.99D-01  6.30D-01  7.41D-01
                    CP:  7.76D-01  9.41D-01  8.05D-01  8.65D-01  8.06D-01
 E= -789.236377669653     Delta-E=       -0.000000000079 Rises=F Damp=F
 DIIS: error= 1.17D-07 at cycle  11 NSaved=  11.
 NSaved=11 IEnMin=11 EnMin= -789.236377669653     IErMin=11 ErrMin= 1.17D-07
 ErrMax= 1.17D-07  0.00D+00 EMaxC= 1.00D-01 BMatC= 6.07D-12 BMatP= 8.47D-11
 IDIUse=1 WtCom= 1.00D+00 WtEn= 0.00D+00
 Coeff-Com:  0.194D-05-0.239D-05-0.282D-04-0.649D-04-0.444D-03-0.689D-03
 Coeff-Com: -0.819D-03 0.109D-01 0.439D-01 0.269D+00 0.678D+00
 Coeff:      0.194D-05-0.239D-05-0.282D-04-0.649D-04-0.444D-03-0.689D-03
 Coeff:     -0.819D-03 0.109D-01 0.439D-01 0.269D+00 0.678D+00
 Gap=     0.170 Goal=   None    Shift=    0.000
 RMSDP=2.80D-08 MaxDP=2.91D-06 DE=-7.94D-11 OVMax= 6.68D-07

 Cycle  12  Pass 1  IDiag  1:
 RMSU=  1.15D-08    CP:  1.03D+00  6.41D-01  8.99D-01  6.30D-01  7.41D-01
                    CP:  7.76D-01  9.41D-01  8.05D-01  8.64D-01  8.34D-01
                    CP:  8.15D-01
 E= -789.236377669683     Delta-E=       -0.000000000030 Rises=F Damp=F
 DIIS: error= 3.76D-08 at cycle  12 NSaved=  12.
 NSaved=12 IEnMin=12 EnMin= -789.236377669683     IErMin=12 ErrMin= 3.76D-08
 ErrMax= 3.76D-08  0.00D+00 EMaxC= 1.00D-01 BMatC= 6.27D-13 BMatP= 6.07D-12
 IDIUse=1 WtCom= 1.00D+00 WtEn= 0.00D+00
 Coeff-Com: -0.203D-07 0.515D-06-0.388D-05-0.109D-04-0.677D-04-0.189D-03
 Coeff-Com: -0.893D-03 0.223D-04 0.169D-02 0.489D-01 0.287D+00 0.664D+00
 Coeff:     -0.203D-07 0.515D-06-0.388D-05-0.109D-04-0.677D-04-0.189D-03
 Coeff:     -0.893D-03 0.223D-04 0.169D-02 0.489D-01 0.287D+00 0.664D+00
 Gap=     0.170 Goal=   None    Shift=    0.000
 RMSDP=9.11D-09 MaxDP=3.56D-07 DE=-2.96D-11 OVMax= 2.30D-07

 SCF Done:  E(RB3LYP) =  -789.236377670     A.U. after   12 cycles
            NFock= 12  Conv=0.91D-08     -V/T= 2.0032
 KE= 7.866840979134D+02 PE=-2.864374476818D+03 EE= 7.860889001425D+02
 Leave Link  502 at Fri Aug 19 08:36:33 2022, MaxMem=    26214400 cpu:       184.0
 (Enter /home/software/gaussian//09.d01/l508.exe)
 QCSCF skips out because SCF is already converged.
 Leave Link  508 at Fri Aug 19 08:36:34 2022, MaxMem=    26214400 cpu:         0.1
 (Enter /home/software/gaussian//09.d01/l601.exe)
 Copying SCF densities to generalized density rwf, IOpCl= 0 IROHF=0.

 **********************************************************************

            Population analysis using the SCF density.

 **********************************************************************

 Alpha  occ. eigenvalues -- -101.40673 -19.10975 -14.48052 -10.27461 -10.26236
 Alpha  occ. eigenvalues --  -10.24253 -10.23773 -10.23628  -9.32066  -7.07918
 Alpha  occ. eigenvalues --   -7.07877  -7.07859  -1.06232  -1.02109  -0.80022
 Alpha  occ. eigenvalues --   -0.79230  -0.78298  -0.69443  -0.67212  -0.63606
 Alpha  occ. eigenvalues --   -0.56633  -0.56619  -0.55206  -0.51582  -0.49257
 Alpha  occ. eigenvalues --   -0.47730  -0.46183  -0.44969  -0.44814  -0.43801
 Alpha  occ. eigenvalues --   -0.43344  -0.41896  -0.39827  -0.34030  -0.27659
 Alpha  occ. eigenvalues --   -0.21348  -0.20945  -0.20834
 Alpha virt. eigenvalues --   -0.03819  -0.01013  -0.00917  -0.00098   0.00480
 Alpha virt. eigenvalues --    0.01528   0.02551   0.03525   0.03896   0.04664
 Alpha virt. eigenvalues --    0.06357   0.06767   0.07465   0.07960   0.08768
 Alpha virt. eigenvalues --    0.09172   0.09771   0.10405   0.11260   0.12031
 Alpha virt. eigenvalues --    0.12543   0.12924   0.13076   0.13366   0.13728
 Alpha virt. eigenvalues --    0.14718   0.15051   0.15666   0.16250   0.16493
 Alpha virt. eigenvalues --    0.16572   0.17441   0.19177   0.20373   0.20628
 Alpha virt. eigenvalues --    0.20804   0.21694   0.22211   0.23130   0.24113
 Alpha virt. eigenvalues --    0.24463   0.24594   0.26056   0.26715   0.28372
 Alpha virt. eigenvalues --    0.29072   0.30332   0.31229   0.32490   0.32707
 Alpha virt. eigenvalues --    0.34391   0.35690   0.38337   0.40336   0.41811
 Alpha virt. eigenvalues --    0.43073   0.44501   0.45730   0.47555   0.48397
 Alpha virt. eigenvalues --    0.49343   0.51569   0.53288   0.53836   0.54038
 Alpha virt. eigenvalues --    0.54812   0.55885   0.56181   0.57427   0.58197
 Alpha virt. eigenvalues --    0.59259   0.60136   0.61622   0.63013   0.63708
 Alpha virt. eigenvalues --    0.64839   0.66173   0.67475   0.68906   0.70127
 Alpha virt. eigenvalues --    0.71137   0.72112   0.73182   0.74164   0.75333
 Alpha virt. eigenvalues --    0.78305   0.80444   0.83337   0.89517   0.90663
 Alpha virt. eigenvalues --    0.91624   0.93728   0.98023   1.01119   1.01996
 Alpha virt. eigenvalues --    1.03290   1.03970   1.06589   1.08232   1.11690
 Alpha virt. eigenvalues --    1.14072   1.15624   1.16072   1.17570   1.20501
 Alpha virt. eigenvalues --    1.21631   1.28788   1.32038   1.36255   1.37067
 Alpha virt. eigenvalues --    1.38423   1.41319   1.42154   1.42345   1.43215
 Alpha virt. eigenvalues --    1.44274   1.46347   1.47039   1.47900   1.51584
 Alpha virt. eigenvalues --    1.52084   1.53947   1.55426   1.56693   1.58169
 Alpha virt. eigenvalues --    1.59805   1.61657   1.63036   1.64304   1.66501
 Alpha virt. eigenvalues --    1.67063   1.70164   1.70546   1.72458   1.76813
 Alpha virt. eigenvalues --    1.77369   1.79466   1.80731   1.80976   1.82260
 Alpha virt. eigenvalues --    1.86455   1.90583   1.92107   1.94289   1.97186
 Alpha virt. eigenvalues --    1.98852   2.02030   2.03532   2.07988   2.09471
 Alpha virt. eigenvalues --    2.11039   2.12679   2.13314   2.16373   2.18115
 Alpha virt. eigenvalues --    2.20288   2.27109   2.36460   2.38086   2.38793
 Alpha virt. eigenvalues --    2.39815   2.40334   2.41527   2.42193   2.43306
 Alpha virt. eigenvalues --    2.44116   2.44623   2.46545   2.47987   2.49429
 Alpha virt. eigenvalues --    2.52436   2.54339   2.54889   2.56107   2.58097
 Alpha virt. eigenvalues --    2.59357   2.60147   2.60890   2.64322   2.65606
 Alpha virt. eigenvalues --    2.66504   2.69892   2.70523   2.75034   2.76550
 Alpha virt. eigenvalues --    2.80249   2.80812   2.87512   2.94201   2.98639
 Alpha virt. eigenvalues --    2.99661   3.05875   3.11458   3.12796   3.14776
 Alpha virt. eigenvalues --    3.25469   3.35245   3.50691   3.52051   3.54594
 Alpha virt. eigenvalues --    3.62567   3.69358   3.69970   3.71510   3.74495
 Alpha virt. eigenvalues --    3.75054   3.76875   3.78070   3.81106   3.87689
 Alpha virt. eigenvalues --    4.04365   4.14197   4.65913   4.69434   4.71181
 Alpha virt. eigenvalues --    5.08249   5.41728   5.65095   9.81618  23.80659
 Alpha virt. eigenvalues --   23.86361  23.86566  23.88141  23.90674  25.98000
 Alpha virt. eigenvalues --   26.03251  26.12537  35.38117  49.93032 215.79101
          Condensed to atoms (all electrons):
               1          2          3          4          5          6
     1  C    5.541983   0.391797   0.415861   0.409909   0.311190  -0.285710
     2  H    0.391797   0.488783  -0.022079  -0.024054  -0.022694  -0.003576
     3  H    0.415861  -0.022079   0.475857  -0.020849  -0.028256  -0.028917
     4  H    0.409909  -0.024054  -0.020849   0.484173  -0.017823   0.012574
     5  N    0.311190  -0.022694  -0.028256  -0.017823   7.327586   0.076636
     6  C   -0.285710  -0.003576  -0.028917   0.012574   0.076636   6.119548
     7  H   -0.044342   0.000082  -0.000412   0.000044  -0.025389   0.407342
     8  H    0.020597   0.000253   0.000287  -0.000128   0.029599   0.302279
     9  H    0.017083  -0.002035   0.001533   0.000280  -0.002489   0.383918
    10  C   -0.072575  -0.021705   0.016602  -0.012314   0.338575  -0.288545
    11  H   -0.014680   0.000286  -0.000049  -0.000859  -0.022233  -0.020458
    12  H   -0.026652  -0.000520   0.000094   0.002077  -0.019702   0.037312
    13  H    0.010776  -0.000128  -0.000314   0.000173  -0.042379   0.004050
    14  C   -0.393384   0.036638  -0.011528  -0.034633  -0.740575  -0.291486
    15  H    0.022517  -0.000385   0.000213   0.000299   0.009675   0.012992
    16  H   -0.016015   0.000051  -0.002331  -0.000222   0.051032   0.022661
    17  C    0.003201  -0.006363   0.010740   0.012388  -0.102015  -0.098693
    18  H    0.000787   0.000032   0.001062   0.000266  -0.017495   0.008851
    19  H   -0.009324  -0.000199  -0.003492  -0.000286   0.041920   0.030769
    20  O    0.009940   0.000013  -0.000186  -0.000130   0.049693  -0.011364
    21  H   -0.004978   0.000001  -0.000028  -0.000020  -0.017189   0.017255
    22  Cl   0.021201   0.000029  -0.000064   0.000033   0.216480  -0.129759
               7          8          9         10         11         12
     1  C   -0.044342   0.020597   0.017083  -0.072575  -0.014680  -0.026652
     2  H    0.000082   0.000253  -0.002035  -0.021705   0.000286  -0.000520
     3  H   -0.000412   0.000287   0.001533   0.016602  -0.000049   0.000094
     4  H    0.000044  -0.000128   0.000280  -0.012314  -0.000859   0.002077
     5  N   -0.025389   0.029599  -0.002489   0.338575  -0.022233  -0.019702
     6  C    0.407342   0.302279   0.383918  -0.288545  -0.020458   0.037312
     7  H    0.504745  -0.014167  -0.028940  -0.020425  -0.001324   0.000978
     8  H   -0.014167   0.384836  -0.012980  -0.006317  -0.001457  -0.000232
     9  H   -0.028940  -0.012980   0.510524   0.033493   0.000244  -0.000525
    10  C   -0.020425  -0.006317   0.033493   5.567451   0.384884   0.380986
    11  H   -0.001324  -0.001457   0.000244   0.384884   0.507338  -0.024191
    12  H    0.000978  -0.000232  -0.000525   0.380986  -0.024191   0.490291
    13  H   -0.000811  -0.001193   0.000732   0.438325  -0.016930  -0.014590
    14  C    0.050495  -0.010532  -0.064645  -0.410829   0.033239  -0.007303
    15  H   -0.000554  -0.009422   0.000273   0.013293   0.000913  -0.002542
    16  H   -0.000109   0.000053   0.000215  -0.006963  -0.000013   0.000192
    17  C    0.001589   0.010870  -0.007967  -0.051940   0.000202   0.000717
    18  H   -0.000214  -0.000235  -0.000738  -0.006508   0.000038  -0.000064
    19  H    0.001564  -0.001930   0.002476   0.014016   0.000069   0.000101
    20  O   -0.000135   0.001659   0.001105   0.012847   0.000030   0.000143
    21  H    0.000020  -0.002167  -0.000001  -0.006444   0.000022   0.000033
    22  Cl  -0.001664   0.057457  -0.000518   0.047306  -0.000975  -0.001463
              13         14         15         16         17         18
     1  C    0.010776  -0.393384   0.022517  -0.016015   0.003201   0.000787
     2  H   -0.000128   0.036638  -0.000385   0.000051  -0.006363   0.000032
     3  H   -0.000314  -0.011528   0.000213  -0.002331   0.010740   0.001062
     4  H    0.000173  -0.034633   0.000299  -0.000222   0.012388   0.000266
     5  N   -0.042379  -0.740575   0.009675   0.051032  -0.102015  -0.017495
     6  C    0.004050  -0.291486   0.012992   0.022661  -0.098693   0.008851
     7  H   -0.000811   0.050495  -0.000554  -0.000109   0.001589  -0.000214
     8  H   -0.001193  -0.010532  -0.009422   0.000053   0.010870  -0.000235
     9  H    0.000732  -0.064645   0.000273   0.000215  -0.007967  -0.000738
    10  C    0.438325  -0.410829   0.013293  -0.006963  -0.051940  -0.006508
    11  H   -0.016930   0.033239   0.000913  -0.000013   0.000202   0.000038
    12  H   -0.014590  -0.007303  -0.002542   0.000192   0.000717  -0.000064
    13  H    0.406223  -0.032355   0.002143   0.000119  -0.009518  -0.000044
    14  C   -0.032355   7.796947   0.338322   0.284614   0.184450   0.029107
    15  H    0.002143   0.338322   0.421556  -0.010921  -0.076858   0.002267
    16  H    0.000119   0.284614  -0.010921   0.509802  -0.022753  -0.014614
    17  C   -0.009518   0.184450  -0.076858  -0.022753   5.364376   0.379659
    18  H   -0.000044   0.029107   0.002267  -0.014614   0.379659   0.587352
    19  H    0.000525  -0.185568   0.002757   0.008616   0.402761  -0.052254
    20  O   -0.000004  -0.167504   0.000057   0.013904   0.226382  -0.067123
    21  H    0.000188   0.029107   0.001965  -0.000661  -0.010416   0.007070
    22  Cl  -0.005681  -0.278728   0.047047   0.006373   0.070388  -0.002437
              19         20         21         22
     1  C   -0.009324   0.009940  -0.004978   0.021201
     2  H   -0.000199   0.000013   0.000001   0.000029
     3  H   -0.003492  -0.000186  -0.000028  -0.000064
     4  H   -0.000286  -0.000130  -0.000020   0.000033
     5  N    0.041920   0.049693  -0.017189   0.216480
     6  C    0.030769  -0.011364   0.017255  -0.129759
     7  H    0.001564  -0.000135   0.000020  -0.001664
     8  H   -0.001930   0.001659  -0.002167   0.057457
     9  H    0.002476   0.001105  -0.000001  -0.000518
    10  C    0.014016   0.012847  -0.006444   0.047306
    11  H    0.000069   0.000030   0.000022  -0.000975
    12  H    0.000101   0.000143   0.000033  -0.001463
    13  H    0.000525  -0.000004   0.000188  -0.005681
    14  C   -0.185568  -0.167504   0.029107  -0.278728
    15  H    0.002757   0.000057   0.001965   0.047047
    16  H    0.008616   0.013904  -0.000661   0.006373
    17  C    0.402761   0.226382  -0.010416   0.070388
    18  H   -0.052254  -0.067123   0.007070  -0.002437
    19  H    0.623227  -0.025056  -0.006870  -0.000250
    20  O   -0.025056   8.012643   0.265799  -0.049514
    21  H   -0.006870   0.265799   0.423431   0.045869
    22  Cl  -0.000250  -0.049514   0.045869  17.673482
 Mulliken charges:
               1
     1  C   -0.309179
     2  H    0.185773
     3  H    0.196257
     4  H    0.189101
     5  N   -0.394148
     6  C   -0.277681
     7  H    0.171627
     8  H    0.252870
     9  H    0.168961
    10  C   -0.343212
    11  H    0.175902
    12  H    0.184862
    13  H    0.260691
    14  C   -0.153849
    15  H    0.224389
    16  H    0.176967
    17  C   -0.281198
    18  H    0.145235
    19  H    0.156428
    20  O   -0.273200
    21  H    0.258014
    22  Cl  -0.714610
 Sum of Mulliken charges =   0.00000
 Mulliken charges with hydrogens summed into heavy atoms:
               1
     1  C    0.261952
     5  N   -0.394148
     6  C    0.315777
    10  C    0.278243
    14  C    0.247507
    17  C    0.020464
    20  O   -0.015186
    22  Cl  -0.714610
 Electronic spatial extent (au):  <R**2>=           1696.3981
 Charge=              0.0000 electrons
 Dipole moment (field-independent basis, Debye):
    X=             -3.1704    Y=            -12.8220    Z=              0.7467  Tot=             13.2293
 Quadrupole moment (field-independent basis, Debye-Ang):
   XX=            -64.9755   YY=            -91.6896   ZZ=            -57.1080
   XY=             -1.9521   XZ=              2.0639   YZ=             -0.2310
 Traceless Quadrupole moment (field-independent basis, Debye-Ang):
   XX=              6.2822   YY=            -20.4319   ZZ=             14.1497
   XY=             -1.9521   XZ=              2.0639   YZ=             -0.2310
 Octapole moment (field-independent basis, Debye-Ang**2):
  XXX=            -86.8670  YYY=           -266.1260  ZZZ=            -14.1970  XYY=            -14.2357
  XXY=            -66.1632  XXZ=              0.1269  XZZ=            -19.1468  YZZ=            -51.2741
  YYZ=             -7.4653  XYZ=              2.0857
 Hexadecapole moment (field-independent basis, Debye-Ang**3):
 XXXX=           -784.0444 YYYY=          -1722.3932 ZZZZ=           -246.0837 XXXY=           -167.7130
 XXXZ=             20.7306 YYYX=            -86.7152 YYYZ=            -15.1856 ZZZX=              6.9335
 ZZZY=              4.5548 XXYY=           -355.4306 XXZZ=           -156.2600 YYZZ=           -271.4875
 XXYZ=              4.1094 YYXZ=              0.7688 ZZXY=            -39.3983
 N-N= 5.023651010919D+02 E-N=-2.864374468149D+03  KE= 7.866840979134D+02
 No NMR shielding tensors so no spin-rotation constants.
 Leave Link  601 at Fri Aug 19 08:36:34 2022, MaxMem=    26214400 cpu:         3.5
 (Enter /home/software/gaussian//09.d01/l701.exe)
 Compute integral first derivatives.
 ... and contract with generalized density number  0.
 PrsmSu:  requested number of processors reduced to:   7 ShMem   1 Linda.
 PrsmSu:  requested number of processors reduced to:  12 ShMem   1 Linda.
 Leave Link  701 at Fri Aug 19 08:36:35 2022, MaxMem=    26214400 cpu:         3.0
 (Enter /home/software/gaussian//09.d01/l702.exe)
 L702 exits ... SP integral derivatives will be done elsewhere.
 Leave Link  702 at Fri Aug 19 08:36:35 2022, MaxMem=    26214400 cpu:         0.0
 (Enter /home/software/gaussian//09.d01/l703.exe)
 Compute integral first derivatives, UseDBF=F ICtDFT=           0.
 Integral derivatives from FoFJK, PRISM(SPDF).
 Calling FoFJK, ICntrl=      2127 FMM=F ISym2X=0 I1Cent= 0 IOpClX= 0 NMat=1 NMatS=1 NMatT=0.
 FoFJK:  IHMeth= 1 ICntrl=    2127 DoSepK=F KAlg= 0 I1Cent=   0 FoldK=F
 IRaf=         0 NMat=   1 IRICut=       1 DoRegI=T DoRafI=F ISym2E= 0.
 FoFCou: FMM=F IPFlag=           0 FMFlag=      100000 FMFlg1=         800
         NFxFlg=           0 DoJE=F BraDBF=F KetDBF=F FulRan=T
         wScrn=  0.000000 ICntrl=    2127 IOpCl=  0 I1Cent=           0 NGrid=           0
         NMat0=    1 NMatS0=      1 NMatT0=    0 NMatD0=    1 NMtDS0=    0 NMtDT0=    0
 Symmetry not used in FoFCou.
 CoulSu:  requested number of processors reduced to:  11 ShMem   1 Linda.
 Leave Link  703 at Fri Aug 19 08:36:38 2022, MaxMem=    26214400 cpu:        33.0
 (Enter /home/software/gaussian//09.d01/l716.exe)
 Dipole        =-1.24735076D+00-5.04457918D+00 2.93791018D-01
 -------------------------------------------------------------------
 Center     Atomic                   Forces (Hartrees/Bohr)
 Number     Number              X              Y              Z
 -------------------------------------------------------------------
      1        6           0.001515975   -0.007796854    0.001354700
      2        1           0.002890680    0.000936215   -0.001593652
      3        1          -0.003113772   -0.000716980   -0.001929862
      4        1          -0.000359761    0.000944785    0.003181100
      5        7          -0.000589520   -0.000787472    0.000015252
      6        6          -0.002359238    0.002978258    0.007540555
      7        1           0.002904508    0.001371435   -0.000507905
      8        1          -0.000455717   -0.003143866    0.001235123
      9        1          -0.002501466    0.001365496   -0.002015604
     10        6          -0.006491326    0.000593335   -0.005219277
     11        1           0.002255933    0.001826740   -0.001601347
     12        1          -0.001394104    0.001413879    0.002818768
     13        1           0.000287102   -0.003572602   -0.000138933
     14        6           0.003461066    0.002898698   -0.006175720
     15        1           0.001247806   -0.002982148    0.000897569
     16        1          -0.000727585    0.002194013    0.002121203
     17        6           0.001535783   -0.003711488    0.004736458
     18        1          -0.001856689    0.002389701    0.000128633
     19        1           0.001237286   -0.000996379   -0.002914203
     20        8           0.003625568    0.001313650   -0.001746834
     21        1          -0.000837984    0.002367249   -0.000046504
     22       17          -0.000274545    0.001114336   -0.000139519
 -------------------------------------------------------------------
 Cartesian Forces:  Max     0.007796854 RMS     0.002690700
 Leave Link  716 at Fri Aug 19 08:36:38 2022, MaxMem=    26214400 cpu:         0.1
 (Enter /home/software/gaussian//09.d01/l103.exe)

 GradGradGradGradGradGradGradGradGradGradGradGradGradGradGradGradGradGrad
 Berny optimization.
 FormGI is forming the generalized inverse of G from B-inverse, IUseBI=4.
 Internal  Forces:  Max     0.007540793 RMS     0.001743382
 Search for a local minimum.
 Step number   1 out of a maximum of  132
 All quantities printed in internal units (Hartrees-Bohrs-Radians)
 RMS Force = .17434D-02 SwitMx=.10000D-02 MixMth= 1
 Mixed Optimization -- RFO/linear search
 Second derivative matrix not updated -- first step.
 ITU=  0
     Eigenvalues ---    0.00278   0.00448   0.00457   0.00562   0.00579
     Eigenvalues ---    0.01032   0.01868   0.02722   0.03223   0.03616
     Eigenvalues ---    0.03978   0.04254   0.04588   0.05057   0.05280
     Eigenvalues ---    0.05429   0.05745   0.05967   0.05984   0.06037
     Eigenvalues ---    0.06108   0.06491   0.07500   0.08302   0.09834
     Eigenvalues ---    0.10542   0.11403   0.11581   0.12098   0.13379
     Eigenvalues ---    0.15011   0.16000   0.16000   0.16000   0.16000
     Eigenvalues ---    0.16000   0.16000   0.17733   0.19251   0.19661
     Eigenvalues ---    0.27511   0.28695   0.30049   0.31168   0.32724
     Eigenvalues ---    0.33087   0.33660   0.33833   0.33957   0.34021
     Eigenvalues ---    0.34202   0.34217   0.34227   0.34232   0.34280
     Eigenvalues ---    0.34289   0.34342   0.34565   0.43553   0.47308
 RFO step:  Lambda=-1.34053837D-03 EMin= 2.78218703D-03
 Linear search not attempted -- first point.
 Iteration  1 RMS(Cart)=  0.01814894 RMS(Int)=  0.00008052
 Iteration  2 RMS(Cart)=  0.00009608 RMS(Int)=  0.00001003
 Iteration  3 RMS(Cart)=  0.00000001 RMS(Int)=  0.00001003
 ITry= 1 IFail=0 DXMaxC= 7.83D-02 DCOld= 1.00D+10 DXMaxT= 3.00D-01 DXLimC= 3.00D+00 Rises=F
 Variable       Old X    -DE/DX   Delta X   Delta X   Delta X     New X
                                 (Linear)    (Quad)   (Total)
    R1        2.06966  -0.00338   0.00000  -0.00985  -0.00985   2.05981
    R2        2.06756  -0.00362   0.00000  -0.01049  -0.01049   2.05707
    R3        2.06860  -0.00327   0.00000  -0.00950  -0.00950   2.05910
    R4        2.80703   0.00675   0.00000   0.01981   0.01981   2.82684
    R5        2.83954   0.00650   0.00000   0.02134   0.02134   2.86087
    R6        2.82200   0.00676   0.00000   0.02034   0.02034   2.84234
    R7        2.86986   0.00754   0.00000   0.02710   0.02711   2.89698
    R8        2.06949  -0.00322   0.00000  -0.00936  -0.00936   2.06013
    R9        2.08525  -0.00230   0.00000  -0.00796  -0.00797   2.07728
   R10        2.06387  -0.00342   0.00000  -0.00986  -0.00986   2.05400
   R11        4.41800   0.00145   0.00000   0.02477   0.02476   4.44276
   R12        2.06941  -0.00328   0.00000  -0.00955  -0.00955   2.05986
   R13        2.06845  -0.00340   0.00000  -0.00987  -0.00987   2.05857
   R14        2.06991  -0.00352   0.00000  -0.01026  -0.01026   2.05965
   R15        2.07100  -0.00235   0.00000  -0.00785  -0.00784   2.06316
   R16        2.07295  -0.00311   0.00000  -0.00910  -0.00910   2.06385
   R17        2.90209   0.00277   0.00000   0.01003   0.01003   2.91211
   R18        4.46204   0.00107   0.00000   0.02128   0.02129   4.48333
   R19        2.07613  -0.00302   0.00000  -0.00888  -0.00888   2.06725
   R20        2.07907  -0.00329   0.00000  -0.00972  -0.00972   2.06935
   R21        2.64479   0.00372   0.00000   0.00969   0.00969   2.65448
   R22        1.85326   0.00236   0.00000   0.00511   0.00510   1.85836
   R23        4.35851   0.00059   0.00000   0.01465   0.01464   4.37315
    A1        1.91688  -0.00081   0.00000  -0.00544  -0.00545   1.91143
    A2        1.92098  -0.00063   0.00000  -0.00426  -0.00426   1.91672
    A3        1.90624   0.00045   0.00000   0.00245   0.00244   1.90868
    A4        1.91661  -0.00080   0.00000  -0.00417  -0.00419   1.91241
    A5        1.89869   0.00109   0.00000   0.00690   0.00689   1.90558
    A6        1.90419   0.00073   0.00000   0.00476   0.00474   1.90894
    A7        1.91540   0.00048   0.00000   0.00151   0.00149   1.91689
    A8        1.92431  -0.00068   0.00000  -0.00476  -0.00476   1.91955
    A9        1.92490   0.00066   0.00000   0.00504   0.00503   1.92993
   A10        1.87922   0.00020   0.00000  -0.00174  -0.00174   1.87748
   A11        1.95880  -0.00096   0.00000   0.00013   0.00013   1.95893
   A12        1.85998   0.00027   0.00000  -0.00059  -0.00058   1.85939
   A13        1.87830   0.00050   0.00000   0.00359   0.00359   1.88189
   A14        1.88177  -0.00061   0.00000   0.00184   0.00184   1.88361
   A15        1.90384   0.00080   0.00000   0.00514   0.00513   1.90897
   A16        1.95299  -0.00006   0.00000  -0.00276  -0.00277   1.95022
   A17        1.91011  -0.00032   0.00000  -0.00219  -0.00221   1.90790
   A18        1.93520  -0.00027   0.00000  -0.00504  -0.00505   1.93016
   A19        2.68427   0.00060   0.00000   0.00098   0.00097   2.68524
   A20        1.90393   0.00043   0.00000   0.00259   0.00259   1.90652
   A21        1.89983   0.00061   0.00000   0.00375   0.00374   1.90357
   A22        1.87792   0.00082   0.00000   0.00519   0.00518   1.88309
   A23        1.92350  -0.00053   0.00000  -0.00347  -0.00348   1.92002
   A24        1.93346  -0.00061   0.00000  -0.00376  -0.00376   1.92969
   A25        1.92424  -0.00065   0.00000  -0.00388  -0.00389   1.92035
   A26        1.83588  -0.00110   0.00000  -0.00299  -0.00299   1.83289
   A27        1.85176  -0.00001   0.00000  -0.00065  -0.00067   1.85109
   A28        2.03520   0.00151   0.00000   0.01465   0.01465   2.04985
   A29        1.92974   0.00020   0.00000  -0.00624  -0.00625   1.92349
   A30        1.85756  -0.00001   0.00000  -0.00172  -0.00176   1.85580
   A31        1.95035  -0.00064   0.00000  -0.00386  -0.00390   1.94645
   A32        2.33825   0.00035   0.00000   0.00386   0.00386   2.34211
   A33        1.94848   0.00040   0.00000   0.00105   0.00106   1.94954
   A34        1.93322   0.00000   0.00000   0.00091   0.00090   1.93411
   A35        1.88868  -0.00003   0.00000   0.00277   0.00276   1.89145
   A36        1.88719  -0.00029   0.00000  -0.00373  -0.00373   1.88346
   A37        1.87242  -0.00002   0.00000  -0.00141  -0.00142   1.87100
   A38        1.93331  -0.00006   0.00000   0.00035   0.00036   1.93367
   A39        1.84923  -0.00080   0.00000   0.00305   0.00305   1.85228
   A40        2.63733  -0.00045   0.00000  -0.00060  -0.00062   2.63671
   A41        1.09618   0.00110   0.00000   0.00006   0.00008   1.09626
   A42        1.58968   0.00273   0.00000   0.01038   0.01035   1.60003
   A43        0.97266   0.00068   0.00000  -0.00032  -0.00030   0.97236
    D1        0.94314   0.00022   0.00000   0.00205   0.00205   0.94519
    D2       -1.12401   0.00009   0.00000   0.00615   0.00615  -1.11786
    D3        3.10983  -0.00022   0.00000   0.00671   0.00672   3.11655
    D4       -1.14900   0.00028   0.00000   0.00308   0.00308  -1.14592
    D5        3.06704   0.00016   0.00000   0.00718   0.00718   3.07422
    D6        1.01769  -0.00016   0.00000   0.00774   0.00775   1.02544
    D7        3.04359   0.00017   0.00000   0.00123   0.00122   3.04480
    D8        0.97644   0.00004   0.00000   0.00533   0.00532   0.98176
    D9       -1.07291  -0.00027   0.00000   0.00588   0.00589  -1.06702
   D10       -1.25982   0.00015   0.00000   0.00018   0.00018  -1.25965
   D11        2.91378   0.00028   0.00000   0.00040   0.00041   2.91418
   D12        0.81093   0.00050   0.00000   0.00243   0.00244   0.81337
   D13        0.83502  -0.00028   0.00000  -0.00575  -0.00575   0.82927
   D14       -1.27457  -0.00015   0.00000  -0.00552  -0.00552  -1.28009
   D15        2.90577   0.00007   0.00000  -0.00349  -0.00349   2.90229
   D16        2.87654  -0.00037   0.00000  -0.00747  -0.00747   2.86907
   D17        0.76696  -0.00024   0.00000  -0.00724  -0.00724   0.75972
   D18       -1.33589  -0.00002   0.00000  -0.00521  -0.00521  -1.34109
   D19        0.96460  -0.00007   0.00000   0.00259   0.00259   0.96719
   D20       -1.13489  -0.00005   0.00000   0.00301   0.00301  -1.13187
   D21        3.06312  -0.00007   0.00000   0.00259   0.00259   3.06571
   D22       -1.12459  -0.00038   0.00000   0.00456   0.00456  -1.12003
   D23        3.05911  -0.00035   0.00000   0.00498   0.00498   3.06409
   D24        0.97393  -0.00038   0.00000   0.00456   0.00456   0.97849
   D25        3.05370   0.00050   0.00000   0.00566   0.00565   3.05936
   D26        0.95422   0.00053   0.00000   0.00608   0.00608   0.96030
   D27       -1.13096   0.00050   0.00000   0.00565   0.00565  -1.12530
   D28        2.91163  -0.00022   0.00000   0.00286   0.00286   2.91449
   D29        0.86600   0.00007   0.00000   0.01162   0.01162   0.87762
   D30       -1.31848  -0.00014   0.00000   0.00691   0.00690  -1.31159
   D31       -1.23009   0.00020   0.00000   0.00854   0.00854  -1.22155
   D32        3.00746   0.00048   0.00000   0.01730   0.01730   3.02476
   D33        0.82298   0.00027   0.00000   0.01259   0.01258   0.83555
   D34        0.82291   0.00008   0.00000   0.00614   0.00614   0.82906
   D35       -1.22272   0.00036   0.00000   0.01490   0.01491  -1.20782
   D36        2.87598   0.00015   0.00000   0.01019   0.01018   2.88616
   D37       -0.40768  -0.00010   0.00000   0.00181   0.00182  -0.40586
   D38       -2.46985  -0.00030   0.00000  -0.00214  -0.00212  -2.47198
   D39        1.67535   0.00034   0.00000   0.00627   0.00625   1.68160
   D40        0.21693  -0.00052   0.00000   0.00012   0.00011   0.21704
   D41       -0.65560   0.00003   0.00000   0.00760   0.00761  -0.64799
   D42        1.35847   0.00046   0.00000   0.00291   0.00290   1.36137
   D43       -2.93286  -0.00004   0.00000  -0.00233  -0.00233  -2.93519
   D44       -0.81145  -0.00071   0.00000  -0.01168  -0.01168  -0.82313
   D45        1.55482   0.00039   0.00000   0.00720   0.00718   1.56201
   D46       -0.54931   0.00049   0.00000   0.01060   0.01059  -0.53872
   D47       -2.67168   0.00058   0.00000   0.00781   0.00779  -2.66389
   D48       -2.68719  -0.00012   0.00000   0.01077   0.01077  -2.67642
   D49        1.49186  -0.00002   0.00000   0.01418   0.01418   1.50604
   D50       -0.63051   0.00007   0.00000   0.01139   0.01138  -0.61913
   D51       -0.57897  -0.00025   0.00000  -0.00020  -0.00020  -0.57916
   D52       -2.68310  -0.00015   0.00000   0.00320   0.00321  -2.67989
   D53        1.47771  -0.00006   0.00000   0.00041   0.00041   1.47812
   D54       -0.75917  -0.00105   0.00000  -0.00884  -0.00884  -0.76802
   D55        1.19686   0.00135   0.00000   0.00660   0.00658   1.20344
   D56        1.13774  -0.00046   0.00000  -0.00435  -0.00437   1.13337
   D57       -3.04070  -0.00001   0.00000  -0.00235  -0.00237  -3.04307
   D58       -0.98458  -0.00041   0.00000  -0.00748  -0.00750  -0.99208
   D59       -0.31555   0.00007   0.00000  -0.00979  -0.00980  -0.32535
   D60        0.41599   0.00005   0.00000   0.00572   0.00571   0.42170
   D61       -0.55320   0.00057   0.00000   0.01450   0.01452  -0.53869
         Item               Value     Threshold  Converged?
 Maximum Force            0.007541     0.000002     NO 
 RMS     Force            0.001743     0.000001     NO 
 Maximum Displacement     0.078340     0.000006     NO 
 RMS     Displacement     0.018145     0.000004     NO 
 Predicted change in Energy=-6.760374D-04
 Lowest energy point so far.  Saving SCF results.
 GradGradGradGradGradGradGradGradGradGradGradGradGradGradGradGradGradGrad

 Leave Link  103 at Fri Aug 19 08:36:40 2022, MaxMem=    26214400 cpu:        21.7
 (Enter /home/software/gaussian//09.d01/l202.exe)
                          Input orientation:                          
 ---------------------------------------------------------------------
 Center     Atomic      Atomic             Coordinates (Angstroms)
 Number     Number       Type             X           Y           Z
 ---------------------------------------------------------------------
      1          6           0       -0.045166   -1.896201    0.388362
      2          1           0       -0.888897   -2.355239    0.903639
      3          1           0        0.842911   -1.962246    1.014393
      4          1           0        0.134783   -2.409495   -0.555800
      5          7           0       -0.351492   -0.456778    0.120132
      6          6           0       -0.736693    0.235369    1.410277
      7          1           0       -1.728943   -0.115899    1.694050
      8          1           0       -0.724985    1.319521    1.229088
      9          1           0       -0.025344   -0.029885    2.188122
     10          6           0       -1.519852   -0.346567   -0.820672
     11          1           0       -2.367319   -0.892724   -0.406331
     12          1           0       -1.240667   -0.767932   -1.785656
     13          1           0       -1.762462    0.710270   -0.930953
     14          6           0        0.833001    0.226019   -0.573333
     15          1           0        0.438683    1.177591   -0.935273
     16          1           0        1.101181   -0.415911   -1.415223
     17          6           0        2.062009    0.567135    0.291501
     18          1           0        2.781485   -0.256593    0.314719
     19          1           0        1.764196    0.783403    1.322848
     20          8           0        2.713663    1.671812   -0.281377
     21          1           0        2.086380    2.425865   -0.210691
     22         17           0       -0.050961    3.261335    0.087908
 ---------------------------------------------------------------------
                    Distance matrix (angstroms):
                    1          2          3          4          5
     1  C    0.000000
     2  H    1.090004   0.000000
     3  H    1.088557   1.779288   0.000000
     4  H    1.089631   1.783487   1.779602   0.000000
     5  N    1.495901   2.122932   2.119607   2.122841   0.000000
     6  C    2.462947   2.644069   2.735211   3.408846   1.513908
     7  H    2.776581   2.518943   3.238111   3.714282   2.119148
     8  H    3.392616   3.692784   3.643403   4.222628   2.127092
     9  H    2.592810   2.793366   2.421884   3.635560   2.136631
    10  C    2.457199   2.721418   3.400077   2.657752   1.504102
    11  H    2.651584   2.457784   3.669865   2.929753   2.128560
    12  H    2.725539   3.142545   3.688896   2.469643   2.125906
    13  H    3.388715   3.677797   4.208880   3.670587   2.111307
    14  C    2.489950   3.436462   2.703603   2.726490   1.533013
    15  H    3.381466   4.198208   3.717952   3.619881   2.099862
    16  H    2.599671   3.619188   2.891520   2.376322   2.114059
    17  C    3.243083   4.197955   2.899403   3.645880   2.627309
    18  H    3.268592   4.268823   2.675232   3.521054   3.145392
    19  H    3.365610   4.131066   2.912472   4.047086   2.731430
    20  O    4.559649   5.531712   4.287786   4.835597   3.753303
    21  H    4.856193   5.740467   4.722559   5.225757   3.789763
    22  Cl   5.166284   5.737026   5.379887   5.710270   3.730379
                    6          7          8          9         10
     6  C    0.000000
     7  H    1.090173   0.000000
     8  H    1.099251   1.812333   0.000000
     9  H    1.086931   1.775881   1.797259   0.000000
    10  C    2.434979   2.533921   2.758474   3.374416   0.000000
    11  H    2.689163   2.328644   3.204042   3.600073   1.090030
    12  H    3.387416   3.573782   3.702981   4.220501   1.089351
    13  H    2.599825   2.752148   2.472513   3.646099   1.089921
    14  C    2.529571   3.438240   2.621410   2.903080   2.434122
    15  H    2.787632   3.644868   2.461448   3.380668   2.484361
    16  H    3.432986   4.215114   3.652258   3.795019   2.688515
    17  C    3.032237   4.099390   3.035208   2.882820   3.860247
    18  H    3.717506   4.718720   3.951650   3.382208   4.449574
    19  H    2.561723   3.626093   2.547986   2.147694   4.081235
    20  O    4.102440   5.180248   3.772255   4.061571   4.720947
    21  H    3.923716   4.964403   3.346750   4.030433   4.589485
    22  Cl   3.372737   4.098905   2.351008   3.904316   4.000015
                   11         12         13         14         15
    11  H    0.000000
    12  H    1.785345   0.000000
    13  H    1.791834   1.785460   0.000000
    14  C    3.394337   2.599570   2.664361   0.000000
    15  H    3.526986   2.707106   2.250210   1.091777   0.000000
    16  H    3.643584   2.396954   3.115004   1.092142   1.791229
    17  C    4.715623   4.123669   4.017643   1.541025   2.124340
    18  H    5.237820   4.566262   4.809779   2.195026   3.017960
    19  H    4.782141   4.593325   4.185962   2.184789   2.647920
    20  O    5.692876   4.883843   4.624089   2.390072   2.418133
    21  H    5.557585   4.873407   4.275001   2.557693   2.190460
    22  Cl   4.781840   4.600069   3.236549   3.229826   2.372477
                   16         17         18         19         20
    16  H    0.000000
    17  C    2.191455   0.000000
    18  H    2.416920   1.093943   0.000000
    19  H    3.061858   1.095054   1.769970   0.000000
    20  O    2.871287   1.404690   2.019573   2.065018   0.000000
    21  H    3.239940   1.925531   2.820427   2.270072   0.983400
    22  Cl   4.136300   3.429987   4.522169   3.310592   3.210312
                   21         22
    21  H    0.000000
    22  Cl   2.314174   0.000000
 Symmetry turned off by external request.
 Stoichiometry    C5H14ClNO
 Framework group  C1[X(C5H14ClNO)]
 Deg. of freedom    60
 Full point group                 C1      NOp   1
 Rotational constants (GHZ):      1.8622274      1.0589071      0.8020564
 Leave Link  202 at Fri Aug 19 08:36:40 2022, MaxMem=    26214400 cpu:         0.3
 (Enter /home/software/gaussian//09.d01/l301.exe)
 Standard basis: 6-311+G(d,p) (5D, 7F)
 Ernie: Thresh=  0.10000D-02 Tol=  0.10000D-05 Strict=F.
   268 basis functions,   417 primitive gaussians,   276 cartesian basis functions
    38 alpha electrons       38 beta electrons
       nuclear repulsion energy       499.7840450513 Hartrees.
 IExCor=  402 DFT=T Ex+Corr=B3LYP ExCW=0 ScaHFX=  0.200000
 ScaDFX=  0.800000  0.720000  1.000000  0.810000 ScalE2=  1.000000  1.000000
 IRadAn=      0 IRanWt=     -1 IRanGd=            0 ICorTp=0 IEmpDi=  4
 NAtoms=   22 NActive=   22 NUniq=   22 SFac= 1.00D+00 NAtFMM=   60 NAOKFM=F Big=F
 Integral buffers will be    131072 words long.
 Raffenetti 2 integral format.
 Two-electron integral symmetry is turned off.
 Leave Link  301 at Fri Aug 19 08:36:40 2022, MaxMem=    26214400 cpu:         0.5
 (Enter /home/software/gaussian//09.d01/l302.exe)
 NPDir=0 NMtPBC=     1 NCelOv=     1 NCel=       1 NClECP=     1 NCelD=      1
         NCelK=      1 NCelE2=     1 NClLst=     1 CellRange=     0.0.
 One-electron integrals computed using PRISM.
 PrsmSu:  requested number of processors reduced to:   7 ShMem   1 Linda.
 NBasis=   268 RedAO= T EigKep=  3.07D-05  NBF=   268
 NBsUse=   268 1.00D-06 EigRej= -1.00D+00 NBFU=   268
 Precomputing XC quadrature grid using
 IXCGrd= 4 IRadAn=           0 IRanWt=          -1 IRanGd=           0 AccXCQ= 0.00D+00.
 Generated NRdTot=       0 NPtTot=           0 NUsed=           0 NTot=          32
 NSgBfM=   276   276   276   276   276 MxSgAt=    22 MxSgA2=    22.
 Leave Link  302 at Fri Aug 19 08:36:41 2022, MaxMem=    26214400 cpu:         5.7
 (Enter /home/software/gaussian//09.d01/l303.exe)
 DipDrv:  MaxL=1.
 Leave Link  303 at Fri Aug 19 08:36:41 2022, MaxMem=    26214400 cpu:         1.8
 (Enter /home/software/gaussian//09.d01/l401.exe)
 Initial guess from the checkpoint file:  "ChoCl.chk"
 B after Tr=     0.003189    0.006367    0.002642
         Rot=    0.999999   -0.001043   -0.000931   -0.000080 Ang=  -0.16 deg.
 Guess basis will be translated and rotated to current coordinates.
 JPrj=2 DoOrth=T DoCkMO=T.
 Generating alternative initial guess.
 ExpMin= 4.38D-02 ExpMax= 1.06D+05 ExpMxC= 3.62D+03 IAcc=2 IRadAn=         4 AccDes= 0.00D+00
 Harris functional with IExCor=  402 and IRadAn=       4 diagonalized for initial guess.
 HarFok:  IExCor=  402 AccDes= 0.00D+00 IRadAn=         4 IDoV= 1 UseB2=F ITyADJ=14
 ICtDFT=  3500011 ScaDFX=  1.000000  1.000000  1.000000  1.000000
 FoFCou: FMM=F IPFlag=           0 FMFlag=      100000 FMFlg1=           0
         NFxFlg=           0 DoJE=T BraDBF=F KetDBF=T FulRan=T
         wScrn=  0.000000 ICntrl=     500 IOpCl=  0 I1Cent=   200000004 NGrid=           0
         NMat0=    1 NMatS0=      1 NMatT0=    0 NMatD0=    1 NMtDS0=    0 NMtDT0=    0
 Symmetry not used in FoFCou.
 Harris En= -789.206704363827    
 Leave Link  401 at Fri Aug 19 08:36:43 2022, MaxMem=    26214400 cpu:        17.5
 (Enter /home/software/gaussian//09.d01/l502.exe)
 Closed shell SCF:
 Using DIIS extrapolation, IDIIS=  1040.
 Two-electron integral symmetry not used.
 IVT=      240586 IEndB=      240586 NGot=    26214400 MDV=    26054491
 LenX=    26054491 LenY=    25977874
 Requested convergence on RMS density matrix=1.00D-08 within  64 cycles.
 Requested convergence on MAX density matrix=1.00D-06.
 Requested convergence on             energy=1.00D-06.
 No special actions if energy rises.
 Fock matrices will be formed incrementally for  20 cycles.

 Cycle   1  Pass 1  IDiag  1:
 FoFJK:  IHMeth= 1 ICntrl=       0 DoSepK=F KAlg= 0 I1Cent=   0 FoldK=F
 IRaf= 940000000 NMat=   1 IRICut=       1 DoRegI=T DoRafI=F ISym2E= 0.
 FoFCou: FMM=F IPFlag=           0 FMFlag=      100000 FMFlg1=           0
         NFxFlg=           0 DoJE=F BraDBF=F KetDBF=F FulRan=T
         wScrn=  0.000000 ICntrl=       0 IOpCl=  0 I1Cent=           0 NGrid=           0
         NMat0=    1 NMatS0=      1 NMatT0=    0 NMatD0=    1 NMtDS0=    0 NMtDT0=    0
 Symmetry not used in FoFCou.
 E= -789.236507057035    
 DIIS: error= 8.69D-04 at cycle   1 NSaved=   1.
 NSaved= 1 IEnMin= 1 EnMin= -789.236507057035     IErMin= 1 ErrMin= 8.69D-04
 ErrMax= 8.69D-04  0.00D+00 EMaxC= 1.00D-01 BMatC= 3.78D-04 BMatP= 3.78D-04
 IDIUse=3 WtCom= 9.91D-01 WtEn= 8.69D-03
 Coeff-Com:  0.100D+01
 Coeff-En:   0.100D+01
 Coeff:      0.100D+01
 Gap=     0.440 Goal=   None    Shift=    0.000
 RMSDP=5.84D-04 MaxDP=5.64D-02              OVMax= 4.31D-03

 Cycle   2  Pass 1  IDiag  1:
 RMSU=  5.46D-04    CP:  9.86D-01
 E= -789.236941803070     Delta-E=       -0.000434746035 Rises=F Damp=F
 DIIS: error= 4.68D-04 at cycle   2 NSaved=   2.
 NSaved= 2 IEnMin= 2 EnMin= -789.236941803070     IErMin= 2 ErrMin= 4.68D-04
 ErrMax= 4.68D-04  0.00D+00 EMaxC= 1.00D-01 BMatC= 5.32D-05 BMatP= 3.78D-04
 IDIUse=3 WtCom= 9.95D-01 WtEn= 4.68D-03
 Coeff-Com:  0.156D+00 0.844D+00
 Coeff-En:   0.000D+00 0.100D+01
 Coeff:      0.155D+00 0.845D+00
 Gap=     0.169 Goal=   None    Shift=    0.000
 RMSDP=8.19D-05 MaxDP=5.54D-03 DE=-4.35D-04 OVMax= 2.37D-03

 Cycle   3  Pass 1  IDiag  1:
 RMSU=  7.21D-05    CP:  9.88D-01  9.56D-01
 E= -789.236927379279     Delta-E=        0.000014423792 Rises=F Damp=F
 DIIS: error= 6.49D-04 at cycle   3 NSaved=   3.
 NSaved= 3 IEnMin= 2 EnMin= -789.236941803070     IErMin= 2 ErrMin= 4.68D-04
[...]
 0.00008304,0.00050846,-0.00002717,0.02869736,-0.09295740,-0.09619037,-
 0.00347066,0.00710040,0.01525386,-0.03217217,0.09275636,0.00121425,-0.
 00153165,0.00014776,-0.00006444,0.00004395,-0.00006914,-0.00010928,0.0
 0018431,0.00037553,-0.00042808,0.00067473,0.00038694,0.00247017,-0.008
 49144,-0.02193424,-0.00379208,0.00161712,-0.00133785,-0.00018669,0.000
 07064,0.00033237,0.00005710,0.00017401,-0.00005191,0.00028227,-0.00081
 059,-0.00084407,0.06207951,-0.09220295,-0.25621020,0.00277727,-0.00455
 927,-0.00803451,-0.06537492,0.10265211,0.28066231,-0.00408822,-0.00127
 527,-0.00284327,0.00017144,0.00011576,-0.00026597,0.00009921,0.0016806
 9,-0.00049540,-0.00004949,-0.00021689,0.00006123,-0.01179237,0.0280051
 2,-0.00585712,0.00048838,0.00071318,0.00139264,-0.00004168,-0.00037395
 ,-0.00008612,0.00032130,-0.00001237,-0.00062602,-0.00012992,-0.0000786
 3,0.00019560,-0.06011555,0.04637639,-0.00381973,0.00779764,-0.02423172
 ,0.00202882,-0.00147226,0.00771769,-0.00046356,0.06910018,-0.00019801,
 0.00078193,-0.00014342,-0.00002923,0.00004415,-0.00011374,-0.00014951,
 0.00029281,-0.00008708,-0.00012070,0.00006049,0.00002192,0.00035636,-0
 .00077735,0.00064436,-0.00041713,0.00042954,-0.00036603,-0.00005815,-0
 .00017459,0.00018633,-0.00012744,0.00083336,-0.00032259,-0.00010091,0.
 00010456,-0.00007279,0.05825537,-0.31213797,0.02633461,0.00287950,-0.0
 1034709,-0.00004476,0.00084741,-0.00780882,0.00140310,-0.06077479,0.32
 714019,-0.00343102,-0.00100121,-0.00278190,0.00001535,-0.00023892,0.00
 006957,-0.00044859,0.00144651,0.00018734,-0.00014564,0.00016920,0.0002
 2076,-0.00867235,0.02335993,-0.00672210,-0.00030523,0.00178442,0.00094
 515,0.00011711,0.00019185,-0.00013386,-0.00060989,-0.00025142,-0.00052
 323,0.00023658,-0.00017558,0.00012435,-0.00293382,0.01710700,-0.052085
 31,-0.00280330,0.01197366,-0.00118069,0.00596551,-0.02746756,0.0052674
 7,0.01091528,-0.02739295,0.05661717,0.00919896,-0.00553908,-0.00084729
 ,0.00035383,0.00455154,-0.00081349,0.00026343,0.00109655,-0.00076068,0
 .00005396,0.00175499,-0.00028863,-0.09459196,-0.00489123,-0.00120773,-
 0.00915473,0.00169813,0.01382593,0.00109983,0.00015840,-0.00074250,0.0
 0060101,0.00081257,-0.00098007,0.00057426,0.00017712,-0.00158238,-0.03
 803238,-0.01457835,0.00413076,-0.00282427,0.00052803,-0.00162806,0.001
 42489,0.00021230,0.00241237,0.00092063,-0.00069603,0.00144325,0.434107
 65,-0.02613553,-0.02302183,0.01700936,0.00133910,-0.00510159,0.0011438
 6,-0.00033392,0.00148594,-0.00024409,-0.00108735,0.00105583,0.00082163
 ,-0.00467151,-0.09046190,-0.00164606,0.01193442,0.01044350,-0.00124304
 ,0.00134444,-0.00162021,-0.00451759,0.00129975,0.00042663,-0.00120671,
 -0.00020714,-0.00007968,-0.00057710,-0.00807426,0.00021752,-0.00250396
 ,0.00056975,-0.00033569,0.00041976,-0.00001294,0.00020428,0.00085782,0
 .00240219,0.00011719,0.00017108,-0.09381284,0.59007000,0.00597269,0.01
 126842,-0.00466937,-0.00033970,-0.00005543,-0.00027603,0.00042706,-0.0
 0027503,0.00006064,-0.00068716,-0.00257707,0.00029759,0.00946272,0.006
 08898,-0.09318881,0.02449418,0.00872609,-0.01633981,-0.00055186,-0.002
 04382,-0.00355973,-0.00012323,-0.00022675,0.00166479,-0.00044301,0.000
 51576,0.00034646,-0.01307365,-0.00957332,0.01195696,-0.00507013,0.0002
 1591,-0.00262690,-0.00232010,-0.00041559,-0.00000541,-0.00071677,-0.00
 051827,-0.00034864,0.03084891,0.05451104,0.51968501,-0.00518893,-0.001
 70643,0.00280035,0.00042398,-0.00200527,0.00050806,-0.00002942,0.00012
 741,0.00007166,-0.00008530,0.00009722,-0.00011683,0.00260425,-0.030245
 49,0.01234438,0.00075355,-0.00043122,-0.00145893,-0.00003665,0.0001226
 6,0.00004410,-0.00022543,-0.00041377,0.00064087,-0.00006703,0.00009589
 ,0.00005645,0.00083061,-0.00278467,0.00175059,0.00005833,0.00007941,-0
 .00009079,-0.00004211,0.00016102,-0.00004920,-0.00136276,-0.00055866,0
 .00012851,-0.08617705,0.09590363,-0.03551627,0.10803691,-0.00123204,0.
 00018533,0.00050476,0.00033258,0.00002796,0.00000897,0.00005388,-0.000
 01981,0.00002935,0.00002471,-0.00000890,-0.00003476,-0.00047185,-0.013
 87900,0.00603975,-0.00006223,-0.00007363,0.00074392,0.00001130,-0.0001
 9616,-0.00016137,0.00044304,0.00179141,-0.00067201,0.00001605,-0.00009
 093,-0.00005073,0.00059713,-0.00009898,-0.00003379,0.00037033,0.000431
 45,-0.00015122,-0.00021776,-0.00046618,-0.00024594,-0.00024511,0.00110
 743,0.00010359,0.08324141,-0.24311615,0.07900926,-0.08154578,0.2608813
 7,0.00233434,-0.00033528,-0.00106618,-0.00016310,0.00096171,0.00029938
 ,0.00003013,-0.00012247,-0.00008001,0.00004604,0.00027150,0.00029614,-
 0.00188906,0.01846163,-0.00858287,-0.00061562,0.00093059,0.00050640,0.
 00006949,-0.00024798,0.00004639,0.00039298,0.00041340,-0.00079578,0.00
 008839,-0.00004882,-0.00002856,-0.00157711,-0.00046964,0.00026908,-0.0
 0005429,-0.00017052,-0.00024304,0.00017704,-0.00038024,0.00004691,-0.0
 0007691,-0.00012480,0.00082331,-0.03118751,0.07283724,-0.07840602,0.03
 576311,-0.08592845,0.08461100,0.00034728,0.00196807,0.00005146,0.00001
 434,0.00005457,-0.00024276,0.00006520,-0.00019097,-0.00012329,0.000153
 42,-0.00061253,-0.00007387,-0.01346225,0.01301737,0.02269843,-0.003513
 39,-0.00267786,-0.00011645,-0.00006248,0.00055704,0.00145893,-0.000028
 56,-0.00028295,-0.00013273,-0.00007400,-0.00015477,0.00022476,0.000831
 53,0.00065697,0.00231283,0.00012649,-0.00013583,-0.00045692,-0.0004958
 3,-0.00039955,-0.00052508,-0.00013068,0.00002207,0.00001296,-0.0626875
 7,0.03459621,0.04691059,-0.00153654,0.00501263,0.00822759,0.07563626,-
 0.00092670,0.00122533,0.00137706,0.00002806,0.00029227,0.00004654,0.00
 011478,-0.00009152,-0.00003266,-0.00046385,-0.00004625,0.00028019,-0.0
 0959056,0.00641074,0.01653197,-0.00291136,-0.00147282,0.00102054,-0.00
 006655,0.00063347,0.00098965,-0.00024589,-0.00043869,0.00024788,0.0000
 3936,-0.00001126,0.00008917,0.00049140,-0.00023199,0.00037197,0.000100
 35,0.00007077,0.00023608,0.00023195,0.00035270,0.00012704,-0.00012741,
 -0.00010561,-0.00014536,0.04417975,-0.14888474,-0.12738368,0.00498366,
 -0.00964697,-0.02263657,-0.03808701,0.15386409,-0.00033630,-0.00195709
 ,0.00004062,-0.00026286,0.00018620,0.00049442,-0.00000469,0.00004221,-
 0.00023527,0.00026677,0.00097247,0.00042560,0.00841935,-0.00761477,-0.
 01640555,0.00185147,0.00216377,0.00076506,0.00019745,-0.00030405,-0.00
 070262,-0.00007176,0.00022394,0.00001171,-0.00009663,-0.00011181,-0.00
 003278,-0.00135808,0.00006848,-0.00022708,0.00009169,0.00014305,0.0002
 1087,0.00004742,-0.00003357,0.00072926,-0.00002470,0.00005733,0.000109
 94,0.04975541,-0.11863765,-0.19705225,-0.00281542,0.00397571,0.0100116
 2,-0.05687691,0.13090193,0.21517891,0.00107849,-0.00152417,0.00081339,
 -0.00005532,0.00053434,-0.00035704,0.00004129,-0.00021784,-0.00042747,
 -0.00003814,-0.00018901,-0.00000889,-0.01437316,-0.00191148,-0.0037627
 7,-0.00130467,-0.00044700,0.00123779,0.00034059,-0.00007380,-0.0006980
 2,-0.00015239,0.00073458,-0.00007478,-0.00124040,-0.00038852,0.0001242
 4,-0.00072885,-0.00046693,0.00061186,0.00067235,-0.00006148,-0.0006521
 9,0.00000368,-0.00019715,-0.00039290,0.00006190,0.00015136,0.00006335,
 -0.12222368,0.00367675,-0.04787866,-0.01464118,-0.00029558,-0.01226154
 ,0.00724913,0.00306906,0.00505612,0.48740822,-0.00138678,0.00051629,-0
 .00094038,0.00051856,-0.00002984,0.00025742,-0.00032210,-0.00031080,0.
 00072517,-0.00014448,-0.00016940,-0.00015474,-0.01085243,-0.00753949,-
 0.00350659,-0.00012930,-0.00054438,0.00097662,-0.00002823,-0.00005167,
 -0.00048350,0.00027470,0.00111863,-0.00034237,-0.00075878,0.00014477,-
 0.00019692,-0.00005133,-0.00034280,0.00020079,0.00031401,0.00080297,-0
 .00029435,-0.00002605,-0.00018238,-0.00009092,-0.00020453,0.00057768,0
 .00002865,0.00416301,-0.07201438,-0.01008167,0.01870562,0.00790626,0.0
 1781506,-0.01411784,-0.00071424,-0.01062737,-0.10289976,0.53536977,0.0
 0166364,-0.00184813,0.00024608,0.00000315,0.00055727,-0.00012170,-0.00
 013250,0.00031765,0.00044188,-0.00005497,0.00019503,-0.00023224,0.0190
 4841,0.00619958,0.01415244,0.00004967,0.00057229,0.00477391,-0.0006294
 0,-0.00058683,-0.00132222,0.00047166,-0.00073043,0.00046794,0.00006501
 ,0.00151203,-0.00118341,0.00299487,0.00224530,-0.00336067,0.00172188,0
 .00000462,0.00127196,0.00009188,0.00026043,0.00016415,-0.00001779,-0.0
 0000676,0.00001723,-0.05285665,-0.01542532,-0.12717479,-0.01068695,-0.
 00161650,-0.00754905,-0.02274080,-0.00292227,-0.01487728,-0.03451033,0
 .00657539,0.54702118,-0.00053549,0.00057915,-0.00045538,0.00026151,-0.
 00021566,0.00018510,-0.00020198,-0.00042822,0.00051420,-0.00007250,-0.
 00007658,-0.00001871,-0.00093990,0.00027183,-0.00088965,-0.00012557,-0
 .00011500,-0.00024303,-0.00007471,-0.00004349,0.00001000,0.00017706,-0
 .00002699,-0.00006340,-0.00001207,0.00014404,0.00000951,-0.00038057,-0
 .00044081,0.00029539,-0.00022736,-0.00012769,-0.00007495,0.00003785,0.
 00006105,-0.00000712,0.00016462,-0.00008714,0.00004940,-0.01589160,0.0
 1918513,-0.00135838,-0.00249188,-0.00229193,-0.00219894,0.00125768,-0.
 00072484,0.00039693,-0.16521055,0.13226992,-0.00433912,0.17580700,0.00
 032848,-0.00053607,0.00049221,-0.00007835,0.00003150,-0.00011448,-0.00
 045117,-0.00018778,-0.00007459,-0.00003591,0.00002039,-0.00004955,0.00
 046308,0.00041669,0.00005293,0.00012107,0.00014064,-0.00020714,0.00006
 623,0.00004471,0.00008070,-0.00011549,-0.00017466,0.00000941,0.0000843
 4,-0.00011555,0.00008840,0.00011979,0.00010300,-0.00004323,-0.00000123
 ,-0.00011128,0.00005212,0.00000427,0.00000964,0.00000845,-0.00000119,-
 0.00004893,-0.00001512,-0.00671655,0.00924566,-0.00211084,-0.00181197,
 -0.00051094,-0.00112745,0.00028687,0.00073461,0.00074007,0.12477793,-0
 .18513336,0.00307445,-0.13305372,0.21709782,0.00001336,0.00013201,0.00
 023197,0.00001359,-0.00008454,-0.00000378,0.00021065,0.00013879,0.0000
 7091,-0.00008698,-0.00001911,-0.00004782,-0.00084567,0.00019094,-0.000
 78977,0.00022961,-0.00014666,-0.00042868,0.00011266,0.00012913,0.00017
 637,-0.00023084,0.00008537,-0.00013667,0.00002373,-0.00025020,0.000160
 68,-0.00024803,-0.00011016,0.00028294,-0.00017557,-0.00012059,-0.00004
 307,0.00001369,0.00002671,0.00001801,0.00007268,-0.00008449,-0.0000052
 9,-0.01522643,0.01385122,-0.00230572,-0.00261756,-0.00117867,-0.001728
 43,0.00042298,0.00033459,0.00108664,0.00073798,-0.00199124,-0.05295413
 ,0.00499602,-0.00926507,0.05393191,-0.00006190,-0.00012674,0.00006486,
 -0.00000569,-0.00004524,0.00004309,-0.00000491,0.00003935,0.00008025,-
 0.00000573,0.00014897,0.00000080,0.00188132,0.00011304,0.00102240,-0.0
 0243256,-0.00141439,0.00068459,-0.00013157,0.00004026,-0.00014407,-0.0
 0064477,0.00019875,0.00003209,-0.00242463,-0.00074460,0.00090376,0.000
 22935,0.00026502,-0.00005702,-0.00001237,-0.00001805,0.00021834,0.0001
 2133,0.00011085,0.00016788,0.00001500,-0.00003148,-0.00005042,0.007113
 37,-0.00832813,-0.02552258,0.00016796,-0.00021533,0.00021661,-0.003942
 97,-0.00082701,-0.00290865,-0.06971483,0.02204347,0.05994647,-0.004724
 55,0.00628228,0.01957984,0.08126352,-0.00018326,0.00007532,-0.00015324
 ,0.00000472,-0.00002091,0.00005313,0.00004795,-0.00015840,-0.00007167,
 0.00014141,0.00007360,0.00007303,0.00041148,0.00041247,0.00002439,-0.0
 0064122,0.00022055,-0.00053242,0.00021201,-0.00004508,0.00025669,0.000
 19460,0.00035045,0.00007215,-0.00084648,0.00004114,0.00076014,-0.00006
 767,0.00002789,0.00002561,-0.00002002,-0.00002581,0.00002253,0.0000608
 2,0.00003640,0.00007263,0.00002790,0.00001348,0.00000778,0.00234027,-0
 .00183705,-0.00644262,0.00000479,0.00019743,0.00001523,-0.00167673,0.0
 0024358,-0.00056635,0.02358250,-0.06832902,-0.06835108,0.00630143,-0.0
 0445536,-0.02191235,-0.01226324,0.07255068,-0.00036163,-0.00001704,-0.
 00005050,-0.00000308,-0.00011658,0.00004913,0.00001914,-0.00014350,-0.
 00008454,0.00006174,0.00013573,0.00009448,0.00042453,-0.00026434,-0.00
 033837,0.00180707,0.00053248,-0.00169453,0.00063729,0.00032804,0.00087
 704,-0.00018510,0.00043088,-0.00028263,0.00191565,-0.00015244,0.000966
 13,-0.00014260,-0.00007803,-0.00007790,-0.00016241,-0.00003006,0.00010
 680,-0.00000441,0.00010330,0.00021608,0.00004966,-0.00002104,-0.000044
 35,0.00333757,-0.00791144,-0.01800183,0.00013191,-0.00035360,0.0002545
 8,-0.00262958,0.00020844,-0.00119112,0.05762765,-0.06284820,-0.2602064
 0,-0.00025672,-0.00111679,0.00315980,-0.07531214,0.06121182,0.28938145
 ,-0.00100886,0.00138173,-0.00033712,0.00011949,-0.00047504,0.00023413,
 0.00000874,-0.00009291,0.00026225,-0.00002661,-0.00012097,-0.00002950,
 -0.00613712,-0.00471393,-0.00454817,0.00028770,-0.00060626,-0.00086967
 ,-0.00030392,-0.00004043,-0.00002851,0.00011025,0.00028093,-0.00010230
 ,-0.00007379,0.00013049,-0.00013687,-0.00056847,-0.00099689,0.00147766
 ,-0.00066827,0.00012013,-0.00035048,0.00001574,-0.00007806,-0.00004374
 ,0.00005097,0.00014764,0.00006150,-0.02507033,-0.02941821,0.01301980,0
 .00147300,-0.00115747,0.00402669,0.00028279,-0.00054489,-0.00111689,-0
 .11763539,-0.02370759,0.03875961,0.01414855,0.01341007,-0.00894642,-0.
 00658743,-0.01657791,0.01146205,0.35229529,0.00014791,0.00059708,0.000
 41681,-0.00032194,-0.00015408,-0.00004149,0.00009389,0.00032342,-0.000
 50335,0.00008432,0.00011149,0.00005086,-0.00444976,-0.00113475,-0.0046
 5323,0.00069192,0.00010309,-0.00081394,-0.00048123,0.00012688,-0.00001
 351,-0.00019491,-0.00213769,0.00094059,-0.00008498,0.00046002,-0.00043
 795,-0.00028016,-0.00108943,0.00177696,-0.00085139,0.00003209,-0.00027
 058,-0.00000917,0.00004571,0.00008733,-0.00017432,-0.00050803,-0.00014
 050,-0.02169402,-0.01749170,0.00661782,0.00185895,-0.00156850,0.000685
 04,0.00130571,0.00023757,-0.00037661,-0.06087443,-0.17336652,0.0671911
 1,-0.01871186,-0.03504632,0.01842286,-0.00672088,-0.00157464,0.0116110
 8,-0.11215643,0.49923666,-0.00095497,0.00030923,-0.00007401,0.00007151
 ,-0.00030920,0.00007848,0.00007920,-0.00024222,-0.00002668,0.00006246,
 -0.00000317,0.00007853,-0.00408168,-0.00348629,0.00056050,0.00005770,-
 0.00006554,-0.00213545,0.00042299,0.00017961,0.00069502,-0.00018175,0.
 00050678,-0.00025884,0.00029034,-0.00063455,0.00081870,-0.00009071,-0.
 00007578,0.00041848,-0.00011787,0.00000913,-0.00015493,0.00004390,0.00
 004883,-0.00001158,0.00005851,0.00003362,-0.00008822,-0.00064353,-0.00
 225706,0.01012822,0.00074853,-0.00086537,0.00120069,0.00155950,0.00106
 698,0.00133089,0.04585398,0.04477328,-0.09645071,0.00147284,0.00616068
 ,-0.00028264,0.02194835,0.03488900,-0.01473768,-0.09186221,-0.07333106
 ,0.12081310,0.00015487,-0.00007991,0.00022855,-0.00008265,0.00001904,-
 0.00005932,0.00003885,0.00017993,-0.00019323,0.00000949,0.00007051,0.0
 0002360,-0.00138488,-0.00017748,-0.00041192,0.00030735,0.00016089,-0.0
 0024633,-0.00013381,0.00015553,-0.00002800,-0.00035232,-0.00177047,0.0
 0081004,-0.00006486,0.00028576,-0.00021220,0.00010142,-0.00029978,0.00
 040582,-0.00016558,0.00006399,-0.00010198,-0.00004816,0.00007352,0.000
 02456,-0.00016732,-0.00038561,-0.00015752,0.00171436,-0.00116000,0.000
 92148,-0.00085494,-0.00322379,-0.00129978,-0.00007867,0.00058463,-0.00
 012406,0.01402142,-0.01935086,-0.00079361,-0.00125483,-0.00462006,0.00
 202200,-0.00045501,-0.00093648,0.00189837,-0.20132845,0.20957183,0.024
 35853,0.18309598,0.00033273,-0.00021477,-0.00016874,0.00004028,0.00018
 680,-0.00005422,-0.00004064,-0.00009325,0.00006724,-0.00001738,-0.0000
 7549,-0.00002958,0.00188886,0.00118773,0.00034071,-0.00028527,-0.00013
 554,0.00070378,0.00015605,-0.00007543,-0.00002434,-0.00001106,0.001407
 73,-0.00055783,0.00008814,-0.00027202,0.00016610,-0.00015471,0.0003570
 5,-0.00065679,0.00027726,-0.00000073,0.00011083,-0.00000748,-0.0001030
 8,-0.00002841,0.00007642,0.00037695,0.00013472,0.00019182,-0.00196628,
 -0.00063650,-0.00189955,0.00152271,-0.00052849,0.00019330,0.00004355,0
 .00013841,0.01475137,-0.03672910,0.00314106,-0.00292671,-0.00163609,0.
 00191344,0.00136901,0.00242841,-0.00120329,0.17013660,-0.26751463,-0.0
 0603703,-0.17835123,0.30528993,0.00016147,0.00005590,-0.00015428,0.000
 04682,0.00009186,0.00000628,-0.00001833,-0.00001785,0.00006845,-0.0000
 0850,-0.00004153,-0.00001989,0.00014483,0.00055590,-0.00006373,-0.0000
 8436,0.00016896,0.00045561,-0.00006878,-0.00008647,-0.00012829,0.00025
 942,0.00011022,-0.00000225,0.00000469,0.00014784,-0.00011537,-0.000026
 28,-0.00001118,-0.00014523,0.00007528,0.00003823,-0.00000293,-0.000026
 81,-0.00007377,-0.00003036,-0.00001817,0.00010453,0.00006225,0.0012841
 5,-0.00202630,0.00068735,-0.00138353,-0.00020447,0.00095110,-0.0000821
 2,-0.00011735,-0.00008316,-0.01103189,0.02022654,-0.00127800,0.0019568
 4,0.00334266,-0.00108471,-0.00103172,0.00087418,0.00062372,0.03731806,
 -0.02610775,-0.02484739,-0.02566954,0.00275877,0.02942486,0.00041304,0
 .00017255,-0.00049336,0.00012501,0.00025900,-0.00010221,-0.00003524,-0
 .00017829,0.00020339,-0.00002882,-0.00021713,-0.00010876,0.00084217,0.
 00029440,0.00026651,0.00077142,-0.00212399,0.00216487,0.00015537,0.000
 10931,-0.00012029,-0.00188261,0.00182035,-0.00106826,0.00015495,-0.001
 17507,0.00029900,-0.00075056,0.00033498,-0.00099448,0.00032318,-0.0001
 0760,0.00017935,0.00009873,-0.00038239,-0.00004828,0.00015896,0.001075
 08,0.00054897,-0.00077261,0.00099048,0.00154407,-0.00160936,0.00085583
 ,-0.00004855,0.00004882,0.00069306,-0.00008565,-0.00355848,-0.00430922
 ,0.00194587,0.00028929,0.00094122,-0.00007131,0.00035707,-0.00011685,-
 0.00031497,-0.00938389,0.01325095,0.00090439,0.00692775,-0.00580782,-0
 .00180154,0.00735578,-0.00042231,0.00060365,-0.00023406,-0.00010371,-0
 .00005618,0.00017047,-0.00003013,0.00009331,-0.00003839,0.00012406,-0.
 00001332,-0.00011000,0.00043762,0.00045233,0.00026265,-0.00288389,-0.0
 0568924,0.00429646,-0.00014064,-0.00154665,0.00013802,0.00030130,-0.00
 193096,-0.00026893,0.00020966,-0.00083400,0.00005348,0.00029735,-0.000
 16908,0.00013516,-0.00003572,-0.00019440,0.00010716,0.00015354,-0.0001
 5406,-0.00001207,0.00060086,0.00002861,0.00035024,0.00282221,-0.007335
 33,-0.00461267,0.00126254,-0.00437521,-0.00027067,0.00066524,-0.002464
 61,0.00061572,-0.00173072,-0.00097899,-0.00035892,0.00045809,0.0001116
 9,-0.00006197,0.00012411,-0.00022512,-0.00030543,0.00507938,0.00031229
 ,-0.00066986,-0.00080996,-0.00398445,0.00021108,-0.00637886,0.02834972
 ,-0.00043727,0.00010989,0.00087410,-0.00014831,-0.00034650,0.00004919,
 0.00013857,-0.00005861,-0.00005837,-0.00011287,0.00036218,0.00017520,0
 .00037823,0.00009293,0.00000835,0.00202371,0.00369337,-0.00207934,0.00
 004948,0.00104994,0.00007097,-0.00089989,-0.00213908,-0.00077275,-0.00
 010516,0.00007211,0.00007859,-0.00072482,0.00017297,-0.00019985,-0.000
 04891,-0.00035528,0.00009196,0.00013363,0.00015523,0.00018249,0.000537
 11,0.00051294,-0.00053095,0.00172660,-0.00342669,-0.00087172,-0.000253
 07,0.00108157,-0.00083666,0.00012049,-0.00059212,0.00041158,-0.0000698
 9,-0.00002066,-0.00184617,0.00001917,0.00002218,0.00069146,0.00011728,
 -0.00032856,0.00098064,0.00175015,-0.00111050,0.00294553,-0.00139545,0
 .00045017,-0.00432403,-0.00279877,0.00060253,0.00495977\\-0.00000037,0
 .00000052,0.00000312,-0.00000097,0.00000132,0.00000284,-0.00000117,0.0
 0000150,0.00000433,0.00000084,-0.00000125,0.00000425,0.00000012,-0.000
 00008,0.00000011,-0.00000161,0.00000230,-0.00000138,-0.00000197,0.0000
 0279,-0.00000205,-0.00000139,0.00000193,-0.00000340,-0.00000258,0.0000
 0358,-0.00000013,0.00000119,-0.00000160,-0.00000146,0.00000067,-0.0000
 0087,-0.00000160,0.00000239,-0.00000332,-0.00000037,0.00000136,-0.0000
 0186,-0.00000362,0.00000081,-0.00000118,0.00000068,0.00000138,-0.00000
 199,-0.00000189,0.00000194,-0.00000272,0.00000196,-0.00000025,0.000000
 15,0.00000147,-0.00000026,0.00000033,0.00000377,-0.00000145,0.00000206
 ,0.00000055,0.00000055,-0.00000092,0.00000041,0.00000057,-0.00000051,-
 0.00000177,0.00000020,-0.00000017,-0.00000583\\\@


 TIME GOES, YOU SAY?  AH NO!
 ALAS, TIME STAYS, WE GO.
    -- A. DOBSON (1840-1921)
 Job cpu time:       0 days  0 hours 44 minutes  2.5 seconds.
 File lengths (MBytes):  RWF=    227 Int=      0 D2E=      0 Chk=      7 Scr=      2
 Normal termination of Gaussian 09 at Fri Aug 19 08:49:51 2022.
