 Entering Gaussian System, Link 0=g09
 Initial command:
 /home/software/gaussian//09.d01/l1.exe "/home/tntech.edu/jbthorn42/tmp/tmp.okCJRpvexW/Gau-779545.inp" -scrdir="/home/tntech.edu/jbthorn42/tmp/tmp.okCJRpvexW/"
 Default is to use a total of  16 processors:
                               16 via shared-memory
                                1 via Linda
 Entering Link 1 = /home/software/gaussian//09.d01/l1.exe PID=    779546.
  
 Copyright (c) 1988,1990,1992,1993,1995,1998,2003,2009,2013,
            Gaussian, Inc.  All Rights Reserved.
  
 This is part of the Gaussian(R) 09 program.  It is based on
 the Gaussian(R) 03 system (copyright 2003, Gaussian, Inc.),
 the Gaussian(R) 98 system (copyright 1998, Gaussian, Inc.),
 the Gaussian(R) 94 system (copyright 1995, Gaussian, Inc.),
 the Gaussian 92(TM) system (copyright 1992, Gaussian, Inc.),
 the Gaussian 90(TM) system (copyright 1990, Gaussian, Inc.),
 the Gaussian 88(TM) system (copyright 1988, Gaussian, Inc.),
 the Gaussian 86(TM) system (copyright 1986, Carnegie Mellon
 University), and the Gaussian 82(TM) system (copyright 1983,
 Carnegie Mellon University). Gaussian is a federally registered
 trademark of Gaussian, Inc.
  
 This software contains proprietary and confidential information,
 including trade secrets, belonging to Gaussian, Inc.
  
 This software is provided under written license and may be
 used, copied, transmitted, or stored only in accord with that
 written license.
  
 The following legend is applicable only to US Government
 contracts under FAR:
  
                    RESTRICTED RIGHTS LEGEND
  
 Use, reproduction and disclosure by the US Government is
 subject to restrictions as set forth in subparagraphs (a)
 and (c) of the Commercial Computer Software - Restricted
 Rights clause in FAR 52.227-19.
  
 Gaussian, Inc.
 340 Quinnipiac St., Bldg. 40, Wallingford CT 06492
  
  
 ---------------------------------------------------------------
 Warning -- This program may not be used in any manner that
 competes with the business of Gaussian, Inc. or will provide
 assistance to any competitor of Gaussian, Inc.  The licensee
 of this program is prohibited from giving any competitor of
 Gaussian, Inc. access to this program.  By using this program,
 the user acknowledges that Gaussian, Inc. is engaged in the
 business of creating and licensing software in the field of
 computational chemistry and represents and warrants to the
 licensee that it is not a competitor of Gaussian, Inc. and that
 it will not use this program in any manner prohibited above.
 ---------------------------------------------------------------
  

 Cite this work as:
 Gaussian 09, Revision D.01,
 M. J. Frisch, G. W. Trucks, H. B. Schlegel, G. E. Scuseria, 
 M. A. Robb, J. R. Cheeseman, G. Scalmani, V. Barone, B. Mennucci, 
 G. A. Petersson, H. Nakatsuji, M. Caricato, X. Li, H. P. Hratchian, 
 A. F. Izmaylov, J. Bloino, G. Zheng, J. L. Sonnenberg, M. Hada, 
 M. Ehara, K. Toyota, R. Fukuda, J. Hasegawa, M. Ishida, T. Nakajima, 
 Y. Honda, O. Kitao, H. Nakai, T. Vreven, J. A. Montgomery, Jr., 
 J. E. Peralta, F. Ogliaro, M. Bearpark, J. J. Heyd, E. Brothers, 
 K. N. Kudin, V. N. Staroverov, T. Keith, R. Kobayashi, J. Normand, 
 K. Raghavachari, A. Rendell, J. C. Burant, S. S. Iyengar, J. Tomasi, 
 M. Cossi, N. Rega, J. M. Millam, M. Klene, J. E. Knox, J. B. Cross, 
 V. Bakken, C. Adamo, J. Jaramillo, R. Gomperts, R. E. Stratmann, 
 O. Yazyev, A. J. Austin, R. Cammi, C. Pomelli, J. W. Ochterski, 
 R. L. Martin, K. Morokuma, V. G. Zakrzewski, G. A. Voth, 
 P. Salvador, J. J. Dannenberg, S. Dapprich, A. D. Daniels, 
 O. Farkas, J. B. Foresman, J. V. Ortiz, J. Cioslowski, 
 and D. J. Fox, Gaussian, Inc., Wallingford CT, 2013.
 
 ******************************************
 Gaussian 09:  ES64L-G09RevD.01 24-Apr-2013
                19-Aug-2022 
 ******************************************
 %chk=cholinecation.chk
 %nprocshared=16
 Will use up to   16 processors via shared memory.
 %mem=25MW
 ----------------------------------------------------------------------
 #p opt=verytight freq=(raman,savenormalmodes) b3lyp/6-311+g(d,p) nosym
 m guess=save scf=(xqc,tight)
 ----------------------------------------------------------------------
 1/7=1,14=-1,18=20,19=15,26=3,38=1/1,3;
 2/9=110,12=2,15=1,17=6,18=5,40=1/2;
 3/5=4,6=6,7=111,11=2,16=1,25=1,30=1,71=1,74=-5/1,2,3;
 4//1;
 5/5=2,8=3,13=1,32=2,38=5/2,8;
 6/7=2,8=2,9=2,10=2,28=1/1;
 7/30=1,92=1/1,2,3,16;
 1/7=1,14=-1,18=20,19=15,26=3/3(2);
 2/9=110,15=1/2;
 99//99;
 2/9=110,15=1/2;
 3/5=4,6=6,7=111,11=2,16=1,25=1,30=1,71=1,74=-5/1,2,3;
 4/5=5,16=3,69=1/1;
 5/5=2,8=3,13=1,32=2,38=5/2,8;
 7/30=1,92=1/1,2,3,16;
 1/7=1,14=-1,18=20,19=15,26=3/3(-5);
 2/9=110,15=1/2;
 6/7=2,8=2,9=2,10=2,19=2,28=1/1;
 99/9=1/99;
 Leave Link    1 at Fri Aug 19 02:44:41 2022, MaxMem=    26214400 cpu:         0.8
 (Enter /home/software/gaussian//09.d01/l101.exe)
 --------------
 Choline Cation
 --------------
 Symbolic Z-matrix:
 Charge =  1 Multiplicity = 1
 C                     0.02054  -1.80132   0.22332 
 H                    -0.81667  -2.40322   0.58921 
 H                     0.85991  -1.88324   0.91735 
 H                     0.31912  -2.14153  -0.77266 
 N                    -0.41935  -0.37297   0.13569 
 C                    -0.77624   0.12626   1.50104 
 H                    -1.63945  -0.43845   1.86568 
 H                    -1.02528   1.18954   1.43418 
 H                     0.06884  -0.02157   2.17745 
 C                    -1.63415  -0.29694  -0.73856 
 H                    -2.41911  -0.92718  -0.31018 
 H                    -1.37327  -0.65243  -1.73972 
 H                    -1.97234   0.74228  -0.78667 
 C                     0.65085   0.48628  -0.49245 
 H                     0.22622   1.48953  -0.61138 
 H                     0.84715   0.07472  -1.48894 
 C                     1.96619   0.58506   0.27522 
 H                     2.41947  -0.40829   0.42261 
 H                     1.81708   1.05559   1.25986 
 O                     2.75949   1.38999  -0.56231 
 H                     3.62      1.53832  -0.16116 
 
 NAtoms=     21 NQM=       21 NQMF=       0 NMMI=      0 NMMIF=      0
                NMic=       0 NMicF=      0.
                    Isotopes and Nuclear Properties:
 (Nuclear quadrupole moments (NQMom) in fm**2, nuclear magnetic moments (NMagM)
  in nuclear magnetons)

  Atom         1           2           3           4           5           6           7           8           9          10
 IAtWgt=          12           1           1           1          14          12           1           1           1          12
 AtmWgt=  12.0000000   1.0078250   1.0078250   1.0078250  14.0030740  12.0000000   1.0078250   1.0078250   1.0078250  12.0000000
 NucSpn=           0           1           1           1           2           0           1           1           1           0
 AtZEff=   0.0000000   0.0000000   0.0000000   0.0000000   0.0000000   0.0000000   0.0000000   0.0000000   0.0000000   0.0000000
 NQMom=    0.0000000   0.0000000   0.0000000   0.0000000   2.0440000   0.0000000   0.0000000   0.0000000   0.0000000   0.0000000
 NMagM=    0.0000000   2.7928460   2.7928460   2.7928460   0.4037610   0.0000000   2.7928460   2.7928460   2.7928460   0.0000000
 AtZNuc=   6.0000000   1.0000000   1.0000000   1.0000000   7.0000000   6.0000000   1.0000000   1.0000000   1.0000000   6.0000000

  Atom        11          12          13          14          15          16          17          18          19          20
 IAtWgt=           1           1           1          12           1           1          12           1           1          16
 AtmWgt=   1.0078250   1.0078250   1.0078250  12.0000000   1.0078250   1.0078250  12.0000000   1.0078250   1.0078250  15.9949146
 NucSpn=           1           1           1           0           1           1           0           1           1           0
 AtZEff=   0.0000000   0.0000000   0.0000000   0.0000000   0.0000000   0.0000000   0.0000000   0.0000000   0.0000000   0.0000000
 NQMom=    0.0000000   0.0000000   0.0000000   0.0000000   0.0000000   0.0000000   0.0000000   0.0000000   0.0000000   0.0000000
 NMagM=    2.7928460   2.7928460   2.7928460   0.0000000   2.7928460   2.7928460   0.0000000   2.7928460   2.7928460   0.0000000
 AtZNuc=   1.0000000   1.0000000   1.0000000   6.0000000   1.0000000   1.0000000   6.0000000   1.0000000   1.0000000   8.0000000

  Atom        21
 IAtWgt=           1
 AtmWgt=   1.0078250
 NucSpn=           1
 AtZEff=   0.0000000
 NQMom=    0.0000000
 NMagM=    2.7928460
 AtZNuc=   1.0000000
 Leave Link  101 at Fri Aug 19 02:44:41 2022, MaxMem=    26214400 cpu:         0.5
 (Enter /home/software/gaussian//09.d01/l103.exe)

 GradGradGradGradGradGradGradGradGradGradGradGradGradGradGradGradGradGrad
 Berny optimization.
 Initialization pass.
                           ----------------------------
                           !    Initial Parameters    !
                           ! (Angstroms and Degrees)  !
 --------------------------                            --------------------------
 ! Name  Definition              Value          Derivative Info.                !
 --------------------------------------------------------------------------------
 ! R1    R(1,2)                  1.0941         estimate D2E/DX2                !
 ! R2    R(1,3)                  1.0922         estimate D2E/DX2                !
 ! R3    R(1,4)                  1.094          estimate D2E/DX2                !
 ! R4    R(1,5)                  1.4971         estimate D2E/DX2                !
 ! R5    R(5,6)                  1.4969         estimate D2E/DX2                !
 ! R6    R(5,10)                 1.4986         estimate D2E/DX2                !
 ! R7    R(5,14)                 1.5094         estimate D2E/DX2                !
 ! R8    R(6,7)                  1.0941         estimate D2E/DX2                !
 ! R9    R(6,8)                  1.0941         estimate D2E/DX2                !
 ! R10   R(6,9)                  1.0925         estimate D2E/DX2                !
 ! R11   R(10,11)                1.094          estimate D2E/DX2                !
 ! R12   R(10,12)                1.094          estimate D2E/DX2                !
 ! R13   R(10,13)                1.0939         estimate D2E/DX2                !
 ! R14   R(14,15)                1.0959         estimate D2E/DX2                !
 ! R15   R(14,16)                1.0959         estimate D2E/DX2                !
 ! R16   R(14,17)                1.5262         estimate D2E/DX2                !
 ! R17   R(17,18)                1.1018         estimate D2E/DX2                !
 ! R18   R(17,19)                1.1014         estimate D2E/DX2                !
 ! R19   R(17,20)                1.4067         estimate D2E/DX2                !
 ! R20   R(20,21)                0.9609         estimate D2E/DX2                !
 ! A1    A(2,1,3)              109.53           estimate D2E/DX2                !
 ! A2    A(2,1,4)              110.0121         estimate D2E/DX2                !
 ! A3    A(2,1,5)              108.6388         estimate D2E/DX2                !
 ! A4    A(3,1,4)              110.2076         estimate D2E/DX2                !
 ! A5    A(3,1,5)              109.5452         estimate D2E/DX2                !
 ! A6    A(4,1,5)              108.8801         estimate D2E/DX2                !
 ! A7    A(1,5,6)              109.5633         estimate D2E/DX2                !
 ! A8    A(1,5,10)             108.7068         estimate D2E/DX2                !
 ! A9    A(1,5,14)             111.0484         estimate D2E/DX2                !
 ! A10   A(6,5,10)             108.7784         estimate D2E/DX2                !
 ! A11   A(6,5,14)             111.0251         estimate D2E/DX2                !
 ! A12   A(10,5,14)            107.6439         estimate D2E/DX2                !
 ! A13   A(5,6,7)              108.6605         estimate D2E/DX2                !
 ! A14   A(5,6,8)              108.8222         estimate D2E/DX2                !
 ! A15   A(5,6,9)              109.5829         estimate D2E/DX2                !
 ! A16   A(7,6,8)              110.0231         estimate D2E/DX2                !
 ! A17   A(7,6,9)              109.5186         estimate D2E/DX2                !
 ! A18   A(8,6,9)              110.2069         estimate D2E/DX2                !
 ! A19   A(5,10,11)            108.9029         estimate D2E/DX2                !
 ! A20   A(5,10,12)            108.9103         estimate D2E/DX2                !
 ! A21   A(5,10,13)            108.9327         estimate D2E/DX2                !
 ! A22   A(11,10,12)           110.0142         estimate D2E/DX2                !
 ! A23   A(11,10,13)           110.0404         estimate D2E/DX2                !
 ! A24   A(12,10,13)           110.0094         estimate D2E/DX2                !
 ! A25   A(5,14,15)            106.9524         estimate D2E/DX2                !
 ! A26   A(5,14,16)            106.9561         estimate D2E/DX2                !
 ! A27   A(5,14,17)            116.0146         estimate D2E/DX2                !
 ! A28   A(15,14,16)           108.3329         estimate D2E/DX2                !
 ! A29   A(15,14,17)           109.2254         estimate D2E/DX2                !
 ! A30   A(16,14,17)           109.1065         estimate D2E/DX2                !
 ! A31   A(14,17,18)           111.3156         estimate D2E/DX2                !
 ! A32   A(14,17,19)           111.1396         estimate D2E/DX2                !
 ! A33   A(14,17,20)           102.9204         estimate D2E/DX2                !
 ! A34   A(18,17,19)           108.7396         estimate D2E/DX2                !
 ! A35   A(18,17,20)           111.318          estimate D2E/DX2                !
 ! A36   A(19,17,20)           111.356          estimate D2E/DX2                !
 ! A37   A(17,20,21)           110.1691         estimate D2E/DX2                !
 ! D1    D(2,1,5,6)             62.5914         estimate D2E/DX2                !
 ! D2    D(2,1,5,10)           -56.1603         estimate D2E/DX2                !
 ! D3    D(2,1,5,14)          -174.4022         estimate D2E/DX2                !
 ! D4    D(3,1,5,6)            -57.0201         estimate D2E/DX2                !
 ! D5    D(3,1,5,10)          -175.7719         estimate D2E/DX2                !
 ! D6    D(3,1,5,14)            65.9863         estimate D2E/DX2                !
 ! D7    D(4,1,5,6)           -177.6037         estimate D2E/DX2                !
 ! D8    D(4,1,5,10)            63.6445         estimate D2E/DX2                !
 ! D9    D(4,1,5,14)           -54.5973         estimate D2E/DX2                !
 ! D10   D(1,5,6,7)            -64.2907         estimate D2E/DX2                !
 ! D11   D(1,5,6,8)            175.9123         estimate D2E/DX2                !
 ! D12   D(1,5,6,9)             55.3423         estimate D2E/DX2                !
 ! D13   D(10,5,6,7)            54.4167         estimate D2E/DX2                !
 ! D14   D(10,5,6,8)           -65.3803         estimate D2E/DX2                !
 ! D15   D(10,5,6,9)           174.0497         estimate D2E/DX2                !
 ! D16   D(14,5,6,7)           172.689          estimate D2E/DX2                !
 ! D17   D(14,5,6,8)            52.8921         estimate D2E/DX2                !
 ! D18   D(14,5,6,9)           -67.6779         estimate D2E/DX2                !
 ! D19   D(1,5,10,11)           58.6932         estimate D2E/DX2                !
 ! D20   D(1,5,10,12)          -61.2878         estimate D2E/DX2                !
 ! D21   D(1,5,10,13)          178.7192         estimate D2E/DX2                !
 ! D22   D(6,5,10,11)          -60.5509         estimate D2E/DX2                !
 ! D23   D(6,5,10,12)          179.4681         estimate D2E/DX2                !
 ! D24   D(6,5,10,13)           59.4751         estimate D2E/DX2                !
 ! D25   D(14,5,10,11)         179.0648         estimate D2E/DX2                !
 ! D26   D(14,5,10,12)          59.0838         estimate D2E/DX2                !
 ! D27   D(14,5,10,13)         -60.9092         estimate D2E/DX2                !
 ! D28   D(1,5,14,15)          174.6934         estimate D2E/DX2                !
 ! D29   D(1,5,14,16)           58.7993         estimate D2E/DX2                !
 ! D30   D(1,5,14,17)          -63.178          estimate D2E/DX2                !
 ! D31   D(6,5,14,15)          -63.146          estimate D2E/DX2                !
 ! D32   D(6,5,14,16)         -179.0401         estimate D2E/DX2                !
 ! D33   D(6,5,14,17)           58.9826         estimate D2E/DX2                !
 ! D34   D(10,5,14,15)          55.8105         estimate D2E/DX2                !
 ! D35   D(10,5,14,16)         -60.0835         estimate D2E/DX2                !
 ! D36   D(10,5,14,17)         177.9392         estimate D2E/DX2                !
 ! D37   D(5,14,17,18)          58.5631         estimate D2E/DX2                !
 ! D38   D(5,14,17,19)         -62.8103         estimate D2E/DX2                !
 ! D39   D(5,14,17,20)         177.8964         estimate D2E/DX2                !
 ! D40   D(15,14,17,18)        179.4812         estimate D2E/DX2                !
 ! D41   D(15,14,17,19)         58.1078         estimate D2E/DX2                !
 ! D42   D(15,14,17,20)        -61.1855         estimate D2E/DX2                !
 ! D43   D(16,14,17,18)        -62.2675         estimate D2E/DX2                !
 ! D44   D(16,14,17,19)        176.3591         estimate D2E/DX2                !
 ! D45   D(16,14,17,20)         57.0658         estimate D2E/DX2                !
 ! D46   D(14,17,20,21)        178.6613         estimate D2E/DX2                !
 ! D47   D(18,17,20,21)        -62.0071         estimate D2E/DX2                !
 ! D48   D(19,17,20,21)         59.5184         estimate D2E/DX2                !
 --------------------------------------------------------------------------------
 Trust Radius=3.00D-01 FncErr=1.00D-07 GrdErr=1.00D-06
 Number of steps in this run=    115 maximum allowed number of steps=    126.
 GradGradGradGradGradGradGradGradGradGradGradGradGradGradGradGradGradGrad

 Leave Link  103 at Fri Aug 19 02:44:42 2022, MaxMem=    26214400 cpu:         0.0
 (Enter /home/software/gaussian//09.d01/l202.exe)
                          Input orientation:                          
 ---------------------------------------------------------------------
 Center     Atomic      Atomic             Coordinates (Angstroms)
 Number     Number       Type             X           Y           Z
 ---------------------------------------------------------------------
      1          6           0        0.020538   -1.801324    0.223324
      2          1           0       -0.816671   -2.403223    0.589212
      3          1           0        0.859910   -1.883239    0.917351
      4          1           0        0.319124   -2.141529   -0.772659
      5          7           0       -0.419347   -0.372968    0.135694
      6          6           0       -0.776241    0.126259    1.501043
      7          1           0       -1.639450   -0.438454    1.865679
      8          1           0       -1.025277    1.189539    1.434177
      9          1           0        0.068838   -0.021572    2.177453
     10          6           0       -1.634153   -0.296937   -0.738556
     11          1           0       -2.419107   -0.927176   -0.310181
     12          1           0       -1.373272   -0.652425   -1.739723
     13          1           0       -1.972335    0.742277   -0.786670
     14          6           0        0.650854    0.486279   -0.492449
     15          1           0        0.226217    1.489534   -0.611375
     16          1           0        0.847151    0.074722   -1.488943
     17          6           0        1.966187    0.585058    0.275224
     18          1           0        2.419466   -0.408294    0.422611
     19          1           0        1.817075    1.055586    1.259855
     20          8           0        2.759491    1.389992   -0.562307
     21          1           0        3.620002    1.538318   -0.161155
 ---------------------------------------------------------------------
                    Distance matrix (angstroms):
                    1          2          3          4          5
     1  C    0.000000
     2  H    1.094109   0.000000
     3  H    1.092213   1.785772   0.000000
     4  H    1.094018   1.792542   1.793125   0.000000
     5  N    1.497123   2.117895   2.128005   2.120908   0.000000
     6  C    2.446017   2.689117   2.656270   3.392994   1.496923
     7  H    2.703758   2.483274   3.038672   3.700987   2.117968
     8  H    3.391925   3.696677   3.641841   4.215869   2.120056
     9  H    2.643571   2.996481   2.383161   3.641431   2.128517
    10  C    2.434419   2.620627   3.388028   2.686815   1.498615
    11  H    2.645870   2.356995   3.629441   3.030915   2.122496
    12  H    2.667626   2.966317   3.682668   2.452926   2.122559
    13  H    3.385489   3.622538   4.221212   3.683384   2.122804
    14  C    2.478459   3.416554   2.765114   2.663445   1.509370
    15  H    3.401290   4.205066   3.756883   3.635830   2.108027
    16  H    2.671085   3.636928   3.102261   2.388230   2.108053
    17  C    3.079458   4.095450   2.780048   3.353379   2.574501
    18  H    2.781205   3.805270   2.202827   2.973922   2.853494
    19  H    3.530422   4.398834   3.109689   4.073882   2.882028
    20  O    4.278268   5.338859   4.063476   4.297823   3.701384
    21  H    4.925157   5.981878   4.526404   4.981065   4.478557
                    6          7          8          9         10
     6  C    0.000000
     7  H    1.094070   0.000000
     8  H    1.094100   1.792697   0.000000
     9  H    1.092494   1.785845   1.793415   0.000000
    10  C    2.435346   2.608083   2.702057   3.388084   0.000000
    11  H    2.662568   2.362431   3.076691   3.632948   1.094011
    12  H    3.386054   3.621541   3.686133   4.221602   1.093968
    13  H    2.654006   2.922310   2.455427   3.679114   1.093914
    14  C    2.477948   3.414878   2.648750   2.779394   2.428014
    15  H    2.706612   3.651527   2.416716   3.175810   2.582369
    16  H    3.402657   4.207140   3.646016   3.749334   2.618794
    17  C    3.038756   4.071577   3.264571   2.754344   3.842930
    18  H    3.414865   4.307918   3.929706   2.958796   4.218120
    19  H    2.765341   3.814019   2.850841   2.249131   4.211168
    20  O    4.284371   5.346869   4.283760   4.091260   4.709660
    21  H    4.907521   5.973066   4.923957   4.529140   5.595328
                   11         12         13         14         15
    11  H    0.000000
    12  H    1.792442   0.000000
    13  H    1.792685   1.792311   0.000000
    14  C    3.384633   2.636176   2.652022   0.000000
    15  H    3.595684   2.901641   2.328680   1.095893   0.000000
    16  H    3.614100   2.349875   2.981328   1.095861   1.776901
    17  C    4.675506   4.091865   4.082192   1.526165   2.152122
    18  H    4.921180   4.372659   4.698307   2.183022   3.079159
    19  H    4.933720   4.700328   4.318108   2.180539   2.494121
    20  O    5.678971   4.757889   4.781219   2.295197   2.535704
    21  H    6.524700   5.676620   5.683237   3.167394   3.423865
                   16         17         18         19         20
    16  H    0.000000
    17  C    2.150574   0.000000
    18  H    2.521808   1.101786   0.000000
    19  H    3.075506   1.101421   1.790753   0.000000
    20  O    2.499127   1.406666   2.078344   2.078521   0.000000
    21  H    3.404972   1.958120   2.360374   2.345814   0.960938
                   21
    21  H    0.000000
 Symmetry turned off by external request.
 Stoichiometry    C5H14NO(1+)
 Framework group  C1[X(C5H14NO)]
 Deg. of freedom    57
 Full point group                 C1      NOp   1
 Rotational constants (GHZ):      4.3144106      1.4709877      1.4463930
 Leave Link  202 at Fri Aug 19 02:44:42 2022, MaxMem=    26214400 cpu:         0.4
 (Enter /home/software/gaussian//09.d01/l301.exe)
 Standard basis: 6-311+G(d,p) (5D, 7F)
 Ernie: Thresh=  0.10000D-02 Tol=  0.10000D-05 Strict=F.
   238 basis functions,   364 primitive gaussians,   245 cartesian basis functions
    29 alpha electrons       29 beta electrons
       nuclear repulsion energy       355.4105659865 Hartrees.
 IExCor=  402 DFT=T Ex+Corr=B3LYP ExCW=0 ScaHFX=  0.200000
 ScaDFX=  0.800000  0.720000  1.000000  0.810000 ScalE2=  1.000000  1.000000
 IRadAn=      0 IRanWt=     -1 IRanGd=            0 ICorTp=0 IEmpDi=  4
 NAtoms=   21 NActive=   21 NUniq=   21 SFac= 1.00D+00 NAtFMM=   60 NAOKFM=F Big=F
 Integral buffers will be    131072 words long.
 Raffenetti 2 integral format.
 Two-electron integral symmetry is turned off.
 Leave Link  301 at Fri Aug 19 02:44:42 2022, MaxMem=    26214400 cpu:         0.2
 (Enter /home/software/gaussian//09.d01/l302.exe)
 NPDir=0 NMtPBC=     1 NCelOv=     1 NCel=       1 NClECP=     1 NCelD=      1
         NCelK=      1 NCelE2=     1 NClLst=     1 CellRange=     0.0.
 One-electron integrals computed using PRISM.
 PrsmSu:  requested number of processors reduced to:   7 ShMem   1 Linda.
 NBasis=   238 RedAO= T EigKep=  2.84D-05  NBF=   238
 NBsUse=   238 1.00D-06 EigRej= -1.00D+00 NBFU=   238
 Precomputing XC quadrature grid using
 IXCGrd= 4 IRadAn=           0 IRanWt=          -1 IRanGd=           0 AccXCQ= 0.00D+00.
 Generated NRdTot=       0 NPtTot=           0 NUsed=           0 NTot=          32
 NSgBfM=   245   245   245   245   245 MxSgAt=    21 MxSgA2=    21.
 Leave Link  302 at Fri Aug 19 02:44:45 2022, MaxMem=    26214400 cpu:        20.3
 (Enter /home/software/gaussian//09.d01/l303.exe)
 DipDrv:  MaxL=1.
 Leave Link  303 at Fri Aug 19 02:44:46 2022, MaxMem=    26214400 cpu:         2.9
 (Enter /home/software/gaussian//09.d01/l401.exe)
 ExpMin= 4.38D-02 ExpMax= 8.59D+03 ExpMxC= 1.30D+03 IAcc=2 IRadAn=         4 AccDes= 0.00D+00
 Harris functional with IExCor=  402 and IRadAn=       4 diagonalized for initial guess.
 HarFok:  IExCor=  402 AccDes= 0.00D+00 IRadAn=         4 IDoV= 1 UseB2=F ITyADJ=14
 ICtDFT=  3500011 ScaDFX=  1.000000  1.000000  1.000000  1.000000
 FoFCou: FMM=F IPFlag=           0 FMFlag=      100000 FMFlg1=           0
         NFxFlg=           0 DoJE=T BraDBF=F KetDBF=T FulRan=T
         wScrn=  0.000000 ICntrl=     500 IOpCl=  0 I1Cent=   200000004 NGrid=           0
         NMat0=    1 NMatS0=      1 NMatT0=    0 NMatD0=    1 NMtDS0=    0 NMtDT0=    0
 Symmetry not used in FoFCou.
 Harris En= -328.831588313705    
 JPrj=0 DoOrth=F DoCkMO=F.
 Leave Link  401 at Fri Aug 19 02:44:50 2022, MaxMem=    26214400 cpu:        40.8
 (Enter /home/software/gaussian//09.d01/l502.exe)
 Closed shell SCF:
 Using DIIS extrapolation, IDIIS=  1040.
 Two-electron integral symmetry not used.
 IVT=      191449 IEndB=      191449 NGot=    26214400 MDV=    26087446
 LenX=    26087446 LenY=    26026980
 Requested convergence on RMS density matrix=1.00D-08 within  64 cycles.
 Requested convergence on MAX density matrix=1.00D-06.
 Requested convergence on             energy=1.00D-06.
 No special actions if energy rises.
 Fock matrices will be formed incrementally for  20 cycles.

 Cycle   1  Pass 1  IDiag  1:
 FoFJK:  IHMeth= 1 ICntrl=       0 DoSepK=F KAlg= 0 I1Cent=   0 FoldK=F
 IRaf= 960000000 NMat=   1 IRICut=       1 DoRegI=T DoRafI=F ISym2E= 0.
 FoFCou: FMM=F IPFlag=           0 FMFlag=      100000 FMFlg1=           0
         NFxFlg=           0 DoJE=F BraDBF=F KetDBF=F FulRan=T
         wScrn=  0.000000 ICntrl=       0 IOpCl=  0 I1Cent=           0 NGrid=           0
         NMat0=    1 NMatS0=      1 NMatT0=    0 NMatD0=    1 NMtDS0=    0 NMtDT0=    0
 Symmetry not used in FoFCou.
 E= -328.578526802849    
 DIIS: error= 2.96D-02 at cycle   1 NSaved=   1.
 NSaved= 1 IEnMin= 1 EnMin= -328.578526802849     IErMin= 1 ErrMin= 2.96D-02
 ErrMax= 2.96D-02  0.00D+00 EMaxC= 1.00D-01 BMatC= 2.53D-01 BMatP= 2.53D-01
 IDIUse=3 WtCom= 7.04D-01 WtEn= 2.96D-01
 Coeff-Com:  0.100D+01
 Coeff-En:   0.100D+01
 Coeff:      0.100D+01
 Gap=     0.192 Goal=   None    Shift=    0.000
 GapD=    0.192 DampG=1.000 DampE=0.500 DampFc=0.5000 IDamp=-1.
 Damping current iteration by 5.00D-01
 RMSDP=4.61D-03 MaxDP=1.30D-01              OVMax= 1.79D-01

 Cycle   2  Pass 1  IDiag  1:
 RMSU=  2.30D-03    CP:  9.93D-01
 E= -328.654092785107     Delta-E=       -0.075565982257 Rises=F Damp=T
 DIIS: error= 1.05D-02 at cycle   2 NSaved=   2.
 NSaved= 2 IEnMin= 2 EnMin= -328.654092785107     IErMin= 2 ErrMin= 1.05D-02
 ErrMax= 1.05D-02  0.00D+00 EMaxC= 1.00D-01 BMatC= 2.68D-02 BMatP= 2.53D-01
 IDIUse=3 WtCom= 8.95D-01 WtEn= 1.05D-01
 Coeff-Com:  0.143D+00 0.857D+00
 Coeff-En:   0.237D+00 0.763D+00
 Coeff:      0.153D+00 0.847D+00
 Gap=     0.305 Goal=   None    Shift=    0.000
 RMSDP=1.02D-03 MaxDP=3.83D-02 DE=-7.56D-02 OVMax= 1.27D-01

 Cycle   3  Pass 1  IDiag  1:
 RMSU=  9.98D-04    CP:  9.94D-01  9.12D-01
 E= -328.773137365523     Delta-E=       -0.119044580417 Rises=F Damp=F
 DIIS: error= 7.18D-03 at cycle   3 NSaved=   3.
 NSaved= 3 IEnMin= 3 EnMin= -328.773137365523     IErMin= 3 ErrMin= 7.18D-03
 ErrMax= 7.18D-03  0.00D+00 EMaxC= 1.00D-01 BMatC= 1.10D-02 BMatP= 2.68D-02
 IDIUse=3 WtCom= 9.28D-01 WtEn= 7.18D-02
 Coeff-Com:  0.423D-02 0.374D+00 0.621D+00
 Coeff-En:   0.000D+00 0.000D+00 0.100D+01
 Coeff:      0.393D-02 0.347D+00 0.649D+00
 Gap=     0.277 Goal=   None    Shift=    0.000
 RMSDP=4.49D-04 MaxDP=1.40D-02 DE=-1.19D-01 OVMax= 2.29D-02

 Cycle   4  Pass 1  IDiag  1:
 RMSU=  3.93D-04    CP:  9.99D-01  9.56D-01  8.16D-01
 E= -328.779375043185     Delta-E=       -0.006237677662 Rises=F Damp=F
 DIIS: error= 4.03D-03 at cycle   4 NSaved=   4.
 NSaved= 4 IEnMin= 4 EnMin= -328.779375043185     IErMin= 4 ErrMin= 4.03D-03
 ErrMax= 4.03D-03  0.00D+00 EMaxC= 1.00D-01 BMatC= 2.37D-03 BMatP= 1.10D-02
 IDIUse=3 WtCom= 9.60D-01 WtEn= 4.03D-02
 Coeff-Com: -0.935D-02 0.917D-01 0.349D+00 0.568D+00
 Coeff-En:   0.000D+00 0.000D+00 0.197D+00 0.803D+00
 Coeff:     -0.897D-02 0.880D-01 0.343D+00 0.578D+00
 Gap=     0.283 Goal=   None    Shift=    0.000
 RMSDP=2.53D-04 MaxDP=9.21D-03 DE=-6.24D-03 OVMax= 7.71D-03

 Cycle   5  Pass 1  IDiag  1:
 RMSU=  1.40D-04    CP:  9.94D-01  9.09D-01  8.12D-01  5.66D-01
 E= -328.781379466965     Delta-E=       -0.002004423779 Rises=F Damp=F
 DIIS: error= 4.41D-04 at cycle   5 NSaved=   5.
 NSaved= 5 IEnMin= 5 EnMin= -328.781379466965     IErMin= 5 ErrMin= 4.41D-04
 ErrMax= 4.41D-04  0.00D+00 EMaxC= 1.00D-01 BMatC= 4.01D-05 BMatP= 2.37D-03
 IDIUse=3 WtCom= 9.96D-01 WtEn= 4.41D-03
 Coeff-Com: -0.318D-02 0.702D-02 0.678D-01 0.191D+00 0.738D+00
 Coeff-En:   0.000D+00 0.000D+00 0.000D+00 0.000D+00 0.100D+01
 Coeff:     -0.317D-02 0.699D-02 0.675D-01 0.190D+00 0.739D+00
 Gap=     0.282 Goal=   None    Shift=    0.000
 RMSDP=4.49D-05 MaxDP=1.26D-03 DE=-2.00D-03 OVMax= 1.28D-03

 Cycle   6  Pass 1  IDiag  1:
 RMSU=  1.94D-05    CP:  9.94D-01  9.18D-01  8.28D-01  6.19D-01  8.46D-01
 E= -328.781408741554     Delta-E=       -0.000029274589 Rises=F Damp=F
 DIIS: error= 1.20D-04 at cycle   6 NSaved=   6.
 NSaved= 6 IEnMin= 6 EnMin= -328.781408741554     IErMin= 6 ErrMin= 1.20D-04
 ErrMax= 1.20D-04  0.00D+00 EMaxC= 1.00D-01 BMatC= 3.73D-06 BMatP= 4.01D-05
 IDIUse=3 WtCom= 9.99D-01 WtEn= 1.20D-03
 Coeff-Com: -0.132D-02 0.215D-02 0.288D-01 0.899D-01 0.404D+00 0.477D+00
 Coeff-En:   0.000D+00 0.000D+00 0.000D+00 0.000D+00 0.000D+00 0.100D+01
 Coeff:     -0.132D-02 0.215D-02 0.287D-01 0.898D-01 0.403D+00 0.477D+00
 Gap=     0.282 Goal=   None    Shift=    0.000
 RMSDP=8.69D-06 MaxDP=2.99D-04 DE=-2.93D-05 OVMax= 3.54D-04

 Cycle   7  Pass 1  IDiag  1:
 RMSU=  6.12D-06    CP:  9.94D-01  9.19D-01  8.30D-01  6.19D-01  8.34D-01
                    CP:  7.36D-01
 E= -328.781411798433     Delta-E=       -0.000003056879 Rises=F Damp=F
 DIIS: error= 2.42D-05 at cycle   7 NSaved=   7.
 NSaved= 7 IEnMin= 7 EnMin= -328.781411798433     IErMin= 7 ErrMin= 2.42D-05
 ErrMax= 2.42D-05  0.00D+00 EMaxC= 1.00D-01 BMatC= 1.41D-07 BMatP= 3.73D-06
 IDIUse=1 WtCom= 1.00D+00 WtEn= 0.00D+00
 Coeff-Com: -0.542D-04-0.402D-03 0.291D-02 0.120D-01 0.643D-01 0.180D+00
 Coeff-Com:  0.741D+00
 Coeff:     -0.542D-04-0.402D-03 0.291D-02 0.120D-01 0.643D-01 0.180D+00
 Coeff:      0.741D+00
 Gap=     0.282 Goal=   None    Shift=    0.000
 RMSDP=2.67D-06 MaxDP=9.72D-05 DE=-3.06D-06 OVMax= 7.34D-05

 Cycle   8  Pass 1  IDiag  1:
 RMSU=  1.20D-06    CP:  9.94D-01  9.19D-01  8.29D-01  6.18D-01  8.44D-01
                    CP:  7.42D-01  8.22D-01
 E= -328.781411890186     Delta-E=       -0.000000091753 Rises=F Damp=F
 DIIS: error= 1.01D-05 at cycle   8 NSaved=   8.
 NSaved= 8 IEnMin= 8 EnMin= -328.781411890186     IErMin= 8 ErrMin= 1.01D-05
 ErrMax= 1.01D-05  0.00D+00 EMaxC= 1.00D-01 BMatC= 2.09D-08 BMatP= 1.41D-07
 IDIUse=1 WtCom= 1.00D+00 WtEn= 0.00D+00
 Coeff-Com:  0.578D-04-0.284D-03-0.150D-03 0.969D-03 0.919D-02 0.671D-01
 Coeff-Com:  0.386D+00 0.537D+00
 Coeff:      0.578D-04-0.284D-03-0.150D-03 0.969D-03 0.919D-02 0.671D-01
 Coeff:      0.386D+00 0.537D+00
 Gap=     0.282 Goal=   None    Shift=    0.000
 RMSDP=7.24D-07 MaxDP=1.65D-05 DE=-9.18D-08 OVMax= 2.50D-05

 Cycle   9  Pass 1  IDiag  1:
 RMSU=  4.07D-07    CP:  9.94D-01  9.19D-01  8.30D-01  6.19D-01  8.42D-01
                    CP:  7.53D-01  8.30D-01  7.27D-01
 E= -328.781411908142     Delta-E=       -0.000000017956 Rises=F Damp=F
 DIIS: error= 1.96D-06 at cycle   9 NSaved=   9.
 NSaved= 9 IEnMin= 9 EnMin= -328.781411908142     IErMin= 9 ErrMin= 1.96D-06
 ErrMax= 1.96D-06  0.00D+00 EMaxC= 1.00D-01 BMatC= 7.75D-10 BMatP= 2.09D-08
 IDIUse=1 WtCom= 1.00D+00 WtEn= 0.00D+00
 Coeff-Com:  0.190D-04-0.704D-04-0.227D-03-0.381D-03-0.136D-02 0.110D-01
 Coeff-Com:  0.757D-01 0.206D+00 0.709D+00
 Coeff:      0.190D-04-0.704D-04-0.227D-03-0.381D-03-0.136D-02 0.110D-01
 Coeff:      0.757D-01 0.206D+00 0.709D+00
 Gap=     0.282 Goal=   None    Shift=    0.000
 RMSDP=1.42D-07 MaxDP=3.36D-06 DE=-1.80D-08 OVMax= 4.17D-06

 Cycle  10  Pass 1  IDiag  1:
 RMSU=  1.07D-07    CP:  9.94D-01  9.19D-01  8.30D-01  6.19D-01  8.42D-01
                    CP:  7.54D-01  8.38D-01  7.21D-01  8.27D-01
 E= -328.781411908777     Delta-E=       -0.000000000634 Rises=F Damp=F
 DIIS: error= 2.66D-07 at cycle  10 NSaved=  10.
 NSaved=10 IEnMin=10 EnMin= -328.781411908777     IErMin=10 ErrMin= 2.66D-07
 ErrMax= 2.66D-07  0.00D+00 EMaxC= 1.00D-01 BMatC= 1.36D-11 BMatP= 7.75D-10
 IDIUse=1 WtCom= 1.00D+00 WtEn= 0.00D+00
 Coeff-Com:  0.146D-05-0.568D-05-0.480D-04-0.122D-03-0.683D-03 0.337D-03
 Coeff-Com:  0.224D-02 0.329D-01 0.168D+00 0.797D+00
 Coeff:      0.146D-05-0.568D-05-0.480D-04-0.122D-03-0.683D-03 0.337D-03
 Coeff:      0.224D-02 0.329D-01 0.168D+00 0.797D+00
 Gap=     0.282 Goal=   None    Shift=    0.000
 RMSDP=3.62D-08 MaxDP=9.43D-07 DE=-6.34D-10 OVMax= 9.32D-07

 Cycle  11  Pass 1  IDiag  1:
 RMSU=  2.06D-08    CP:  9.94D-01  9.19D-01  8.30D-01  6.19D-01  8.42D-01
                    CP:  7.54D-01  8.37D-01  7.32D-01  8.58D-01  8.00D-01
 E= -328.781411908790     Delta-E=       -0.000000000014 Rises=F Damp=F
 DIIS: error= 8.00D-08 at cycle  11 NSaved=  11.
 NSaved=11 IEnMin=11 EnMin= -328.781411908790     IErMin=11 ErrMin= 8.00D-08
 ErrMax= 8.00D-08  0.00D+00 EMaxC= 1.00D-01 BMatC= 1.03D-12 BMatP= 1.36D-11
 IDIUse=1 WtCom= 1.00D+00 WtEn= 0.00D+00
 Coeff-Com: -0.257D-06 0.704D-06-0.783D-05-0.279D-04-0.174D-03-0.263D-03
 Coeff-Com: -0.211D-02 0.374D-02 0.281D-01 0.274D+00 0.697D+00
 Coeff:     -0.257D-06 0.704D-06-0.783D-05-0.279D-04-0.174D-03-0.263D-03
 Coeff:     -0.211D-02 0.374D-02 0.281D-01 0.274D+00 0.697D+00
 Gap=     0.282 Goal=   None    Shift=    0.000
 RMSDP=8.35D-09 MaxDP=1.71D-07 DE=-1.39D-11 OVMax= 2.55D-07

 SCF Done:  E(RB3LYP) =  -328.781411909     A.U. after   11 cycles
            NFock= 11  Conv=0.83D-08     -V/T= 2.0044
 KE= 3.273269069263D+02 PE=-1.464670452582D+03 EE= 4.531515677608D+02
 Leave Link  502 at Fri Aug 19 02:45:07 2022, MaxMem=    26214400 cpu:       202.9
 (Enter /home/software/gaussian//09.d01/l508.exe)
 QCSCF skips out because SCF is already converged.
 Leave Link  508 at Fri Aug 19 02:45:07 2022, MaxMem=    26214400 cpu:         0.0
 (Enter /home/software/gaussian//09.d01/l601.exe)
 Copying SCF densities to generalized density rwf, IOpCl= 0 IROHF=0.

 **********************************************************************

            Population analysis using the SCF density.

 **********************************************************************

 Alpha  occ. eigenvalues --  -19.27391 -14.62107 -10.39552 -10.39512 -10.39417
 Alpha  occ. eigenvalues --  -10.39390 -10.38860  -1.20186  -1.18219  -0.94504
 Alpha  occ. eigenvalues --   -0.92629  -0.92550  -0.84028  -0.77915  -0.71690
 Alpha  occ. eigenvalues --   -0.70255  -0.68742  -0.65543  -0.64838  -0.61742
 Alpha  occ. eigenvalues --   -0.60131  -0.57901  -0.57812  -0.57773  -0.57592
 Alpha  occ. eigenvalues --   -0.56792  -0.55000  -0.49824  -0.43311
 Alpha virt. eigenvalues --   -0.15095  -0.13352  -0.11455  -0.11370  -0.11130
 Alpha virt. eigenvalues --   -0.10700  -0.10093  -0.09771  -0.07703  -0.07371
 Alpha virt. eigenvalues --   -0.06649  -0.05936  -0.04450  -0.03527  -0.03089
 Alpha virt. eigenvalues --   -0.02629  -0.02363  -0.01505  -0.01182  -0.00102
 Alpha virt. eigenvalues --    0.00021   0.00259   0.01820   0.01957   0.02170
 Alpha virt. eigenvalues --    0.02327   0.02651   0.03822   0.05293   0.06380
 Alpha virt. eigenvalues --    0.07566   0.07836   0.08571   0.08689   0.10247
 Alpha virt. eigenvalues --    0.10413   0.10770   0.11690   0.12308   0.13044
 Alpha virt. eigenvalues --    0.13949   0.14286   0.16410   0.17032   0.18775
 Alpha virt. eigenvalues --    0.21843   0.22081   0.23603   0.25091   0.26579
 Alpha virt. eigenvalues --    0.27903   0.29545   0.32326   0.32926   0.35479
 Alpha virt. eigenvalues --    0.36485   0.37367   0.37632   0.39479   0.41759
 Alpha virt. eigenvalues --    0.42242   0.42715   0.43092   0.43993   0.45253
 Alpha virt. eigenvalues --    0.45427   0.47942   0.48503   0.49566   0.52357
 Alpha virt. eigenvalues --    0.53009   0.53474   0.54874   0.58153   0.59217
 Alpha virt. eigenvalues --    0.60503   0.60872   0.63542   0.63600   0.65018
 Alpha virt. eigenvalues --    0.69853   0.76942   0.80040   0.81481   0.85815
 Alpha virt. eigenvalues --    0.86447   0.90425   0.94019   0.94594   0.97294
 Alpha virt. eigenvalues --    0.99243   1.02228   1.07278   1.10953   1.19814
 Alpha virt. eigenvalues --    1.21448   1.24191   1.24610   1.25571   1.27738
 Alpha virt. eigenvalues --    1.27932   1.30326   1.30737   1.32212   1.33306
 Alpha virt. eigenvalues --    1.33647   1.34937   1.36437   1.38267   1.39987
 Alpha virt. eigenvalues --    1.40796   1.41831   1.44054   1.46769   1.48164
 Alpha virt. eigenvalues --    1.50350   1.51083   1.52545   1.52707   1.55759
 Alpha virt. eigenvalues --    1.56434   1.58633   1.62637   1.64989   1.65165
 Alpha virt. eigenvalues --    1.65823   1.67979   1.68679   1.74719   1.80386
 Alpha virt. eigenvalues --    1.82317   1.83509   1.85780   1.87246   1.89468
 Alpha virt. eigenvalues --    1.93587   1.93945   1.97732   1.99572   1.99995
 Alpha virt. eigenvalues --    2.01865   2.02782   2.09541   2.16056   2.22383
 Alpha virt. eigenvalues --    2.23949   2.26594   2.26845   2.28482   2.29583
 Alpha virt. eigenvalues --    2.30466   2.30895   2.31731   2.33846   2.36200
 Alpha virt. eigenvalues --    2.36860   2.39153   2.41205   2.42495   2.46389
 Alpha virt. eigenvalues --    2.46838   2.47515   2.49633   2.51119   2.54011
 Alpha virt. eigenvalues --    2.55744   2.56501   2.57840   2.60464   2.63495
 Alpha virt. eigenvalues --    2.65267   2.67839   2.73868   2.81513   2.84292
 Alpha virt. eigenvalues --    2.95339   2.97064   2.99334   3.07459   3.08112
 Alpha virt. eigenvalues --    3.17983   3.37823   3.37981   3.41359   3.49771
 Alpha virt. eigenvalues --    3.56837   3.57233   3.58589   3.60624   3.61470
 Alpha virt. eigenvalues --    3.62995   3.63646   3.65612   3.71866   3.84680
 Alpha virt. eigenvalues --    4.03307   4.53299   4.54432   4.55916   4.88310
 Alpha virt. eigenvalues --    5.24245   5.54740  23.65008  23.70919  23.73697
 Alpha virt. eigenvalues --   23.74932  23.75273  35.23376  49.76459
          Condensed to atoms (all electrons):
               1          2          3          4          5          6
     1  C    5.496879   0.397792   0.387544   0.399799   0.285691  -0.234853
     2  H    0.397792   0.452745  -0.017705  -0.017935  -0.011239  -0.027821
     3  H    0.387544  -0.017705   0.466396  -0.017748  -0.010583  -0.012742
     4  H    0.399799  -0.017935  -0.017748   0.440468  -0.000834   0.023245
     5  N    0.285691  -0.011239  -0.010583  -0.000834   6.662262   0.254007
     6  C   -0.234853  -0.027821  -0.012742   0.023245   0.254007   5.523233
     7  H   -0.028590  -0.000607  -0.000564   0.000257  -0.014366   0.400334
     8  H    0.021739   0.000263   0.000327  -0.000391   0.000921   0.396789
     9  H   -0.009739  -0.000494   0.000533   0.000395  -0.014812   0.391179
    10  C   -0.177082  -0.014899   0.027054  -0.023606   0.302902  -0.193024
    11  H   -0.024626  -0.000410   0.000112  -0.000528  -0.010880  -0.026983
    12  H   -0.023794  -0.000667   0.000310   0.000995  -0.006132   0.026797
    13  H    0.027321   0.000276  -0.000368   0.000239  -0.004846  -0.021755
    14  C   -0.249053   0.030686  -0.023243  -0.025419   0.078053  -0.216638
    15  H    0.015716  -0.000134   0.000142   0.000410   0.005526  -0.031462
    16  H   -0.027978  -0.000118  -0.000992  -0.000833   0.001757   0.017551
    17  C   -0.011113  -0.000070   0.004298   0.002421  -0.076264  -0.014292
    18  H    0.003703   0.000623   0.003276  -0.000312   0.010124  -0.010422
    19  H   -0.005156  -0.000164  -0.002227   0.000038  -0.012097   0.011942
    20  O   -0.006167  -0.000001  -0.000213   0.000293   0.010324  -0.006459
    21  H    0.000231   0.000001  -0.000024  -0.000033  -0.001022   0.000453
               7          8          9         10         11         12
     1  C   -0.028590   0.021739  -0.009739  -0.177082  -0.024626  -0.023794
     2  H   -0.000607   0.000263  -0.000494  -0.014899  -0.000410  -0.000667
     3  H   -0.000564   0.000327   0.000533   0.027054   0.000112   0.000310
     4  H    0.000257  -0.000391   0.000395  -0.023606  -0.000528   0.000995
     5  N   -0.014366   0.000921  -0.014812   0.302902  -0.010880  -0.006132
     6  C    0.400334   0.396789   0.391179  -0.193024  -0.026983   0.026797
     7  H    0.453345  -0.017595  -0.017418  -0.013991  -0.000390   0.000275
     8  H   -0.017595   0.439187  -0.018180  -0.023191  -0.000470   0.000222
     9  H   -0.017418  -0.018180   0.465404   0.024497   0.000102  -0.000363
    10  C   -0.013991  -0.023191   0.024497   5.457338   0.394243   0.401389
    11  H   -0.000390  -0.000470   0.000102   0.394243   0.456950  -0.018132
    12  H    0.000275   0.000222  -0.000363   0.401389  -0.018132   0.449651
    13  H   -0.000818   0.000915   0.000339   0.401905  -0.017949  -0.018350
    14  C    0.030040  -0.020770  -0.023239  -0.207357   0.034020  -0.022307
    15  H   -0.000181  -0.001309  -0.000866   0.000554   0.000329  -0.001167
    16  H   -0.000098   0.000366   0.000171  -0.005767   0.000183   0.000387
    17  C    0.000183   0.001306   0.004691  -0.062774   0.004695  -0.003448
    18  H   -0.000258   0.000037  -0.002956   0.003421   0.000013   0.000031
    19  H    0.000833  -0.000313   0.001820  -0.000569   0.000005  -0.000016
    20  O   -0.000004   0.000219  -0.000053   0.007790   0.000050  -0.000097
    21  H    0.000002  -0.000023  -0.000041  -0.001622   0.000000  -0.000001
              13         14         15         16         17         18
     1  C    0.027321  -0.249053   0.015716  -0.027978  -0.011113   0.003703
     2  H    0.000276   0.030686  -0.000134  -0.000118  -0.000070   0.000623
     3  H   -0.000368  -0.023243   0.000142  -0.000992   0.004298   0.003276
     4  H    0.000239  -0.025419   0.000410  -0.000833   0.002421  -0.000312
     5  N   -0.004846   0.078053   0.005526   0.001757  -0.076264   0.010124
     6  C   -0.021755  -0.216638  -0.031462   0.017551  -0.014292  -0.010422
     7  H   -0.000818   0.030040  -0.000181  -0.000098   0.000183  -0.000258
     8  H    0.000915  -0.020770  -0.001309   0.000366   0.001306   0.000037
     9  H    0.000339  -0.023239  -0.000866   0.000171   0.004691  -0.002956
    10  C    0.401905  -0.207357   0.000554  -0.005767  -0.062774   0.003421
    11  H   -0.017949   0.034020   0.000329   0.000183   0.004695   0.000013
    12  H   -0.018350  -0.022307  -0.001167   0.000387  -0.003448   0.000031
    13  H    0.449138  -0.025070   0.000590  -0.000937  -0.005144  -0.000009
    14  C   -0.025070   6.173753   0.403781   0.421275   0.002733  -0.049282
    15  H    0.000590   0.403781   0.435749  -0.020176  -0.036093   0.005579
    16  H   -0.000937   0.421275  -0.020176   0.431919  -0.047178  -0.008925
    17  C   -0.005144   0.002733  -0.036093  -0.047178   5.409257   0.408869
    18  H   -0.000009  -0.049282   0.005579  -0.008925   0.408869   0.581754
    19  H    0.000015  -0.021364  -0.009741   0.005664   0.391975  -0.057668
    20  O   -0.000085   0.043703   0.005095   0.004457   0.076571  -0.039812
    21  H   -0.000002  -0.066253  -0.000057  -0.000214   0.097772  -0.005527
              19         20         21
     1  C   -0.005156  -0.006167   0.000231
     2  H   -0.000164  -0.000001   0.000001
     3  H   -0.002227  -0.000213  -0.000024
     4  H    0.000038   0.000293  -0.000033
     5  N   -0.012097   0.010324  -0.001022
     6  C    0.011942  -0.006459   0.000453
     7  H    0.000833  -0.000004   0.000002
     8  H   -0.000313   0.000219  -0.000023
     9  H    0.001820  -0.000053  -0.000041
    10  C   -0.000569   0.007790  -0.001622
    11  H    0.000005   0.000050   0.000000
    12  H   -0.000016  -0.000097  -0.000001
    13  H    0.000015  -0.000085  -0.000002
    14  C   -0.021364   0.043703  -0.066253
    15  H   -0.009741   0.005095  -0.000057
    16  H    0.005664   0.004457  -0.000214
    17  C    0.391975   0.076571   0.097772
    18  H   -0.057668  -0.039812  -0.005527
    19  H    0.583649  -0.040066  -0.005965
    20  O   -0.040066   8.022983   0.213677
    21  H   -0.005965   0.213677   0.493952
 Mulliken charges:
               1
     1  C   -0.238264
     2  H    0.209878
     3  H    0.196417
     4  H    0.219078
     5  N   -0.448495
     6  C   -0.249078
     7  H    0.209610
     8  H    0.219955
     9  H    0.199031
    10  C   -0.297211
    11  H    0.209667
    12  H    0.214418
    13  H    0.214596
    14  C   -0.268048
    15  H    0.227714
    16  H    0.229488
    17  C   -0.148394
    18  H    0.157739
    19  H    0.159405
    20  O   -0.292204
    21  H    0.274696
 Sum of Mulliken charges =   1.00000
 Mulliken charges with hydrogens summed into heavy atoms:
               1
     1  C    0.387109
     5  N   -0.448495
     6  C    0.379518
    10  C    0.341471
    14  C    0.189155
    17  C    0.168750
    20  O   -0.017509
 Electronic spatial extent (au):  <R**2>=            979.9392
 Charge=              1.0000 electrons
 Dipole moment (field-independent basis, Debye):
    X=             -0.7141    Y=             -2.0021    Z=              2.0562  Tot=              2.9574
 Quadrupole moment (field-independent basis, Debye-Ang):
   XX=            -28.4017   YY=            -37.9032   ZZ=            -38.9212
   XY=              2.1115   XZ=              3.8145   YZ=              1.9684
 Traceless Quadrupole moment (field-independent basis, Debye-Ang):
   XX=              6.6737   YY=             -2.8279   ZZ=             -3.8458
   XY=              2.1115   XZ=              3.8145   YZ=              1.9684
 Octapole moment (field-independent basis, Debye-Ang**2):
  XXX=             -8.4427  YYY=             -8.1091  ZZZ=             -5.4226  XYY=            -14.7794
  XXY=             10.6646  XXZ=              7.4832  XZZ=            -20.9514  YZZ=             -2.3896
  YYZ=              0.8427  XYZ=              5.2747
 Hexadecapole moment (field-independent basis, Debye-Ang**3):
 XXXX=           -449.3249 YYYY=           -298.0002 ZZZZ=           -211.2984 XXXY=            -29.3740
 XXXZ=             46.8290 YYYX=           -104.6634 YYYZ=             16.9142 ZZZX=             20.8231
 ZZZY=             20.8226 XXYY=           -136.2461 XXZZ=           -151.5460 YYZZ=            -89.3511
 XXYZ=             14.8302 YYXZ=             12.0663 ZZXY=            -38.7812
 N-N= 3.554105659865D+02 E-N=-1.464670447473D+03  KE= 3.273269069263D+02
 No NMR shielding tensors so no spin-rotation constants.
 Leave Link  601 at Fri Aug 19 02:45:07 2022, MaxMem=    26214400 cpu:         3.7
 (Enter /home/software/gaussian//09.d01/l701.exe)
 Compute integral first derivatives.
 ... and contract with generalized density number  0.
 PrsmSu:  requested number of processors reduced to:   7 ShMem   1 Linda.
 PrsmSu:  requested number of processors reduced to:  12 ShMem   1 Linda.
 Leave Link  701 at Fri Aug 19 02:45:08 2022, MaxMem=    26214400 cpu:         3.7
 (Enter /home/software/gaussian//09.d01/l702.exe)
 L702 exits ... SP integral derivatives will be done elsewhere.
 Leave Link  702 at Fri Aug 19 02:45:08 2022, MaxMem=    26214400 cpu:         0.0
 (Enter /home/software/gaussian//09.d01/l703.exe)
 Compute integral first derivatives, UseDBF=F ICtDFT=           0.
 Integral derivatives from FoFJK, PRISM(SPDF).
 Calling FoFJK, ICntrl=      2127 FMM=F ISym2X=0 I1Cent= 0 IOpClX= 0 NMat=1 NMatS=1 NMatT=0.
 FoFJK:  IHMeth= 1 ICntrl=    2127 DoSepK=F KAlg= 0 I1Cent=   0 FoldK=F
 IRaf=         0 NMat=   1 IRICut=       1 DoRegI=T DoRafI=F ISym2E= 0.
 FoFCou: FMM=F IPFlag=           0 FMFlag=      100000 FMFlg1=         800
         NFxFlg=           0 DoJE=F BraDBF=F KetDBF=F FulRan=T
         wScrn=  0.000000 ICntrl=    2127 IOpCl=  0 I1Cent=           0 NGrid=           0
         NMat0=    1 NMatS0=      1 NMatT0=    0 NMatD0=    1 NMtDS0=    0 NMtDT0=    0
 Symmetry not used in FoFCou.
 CoulSu:  requested number of processors reduced to:  12 ShMem   1 Linda.
 Leave Link  703 at Fri Aug 19 02:45:11 2022, MaxMem=    26214400 cpu:        27.7
 (Enter /home/software/gaussian//09.d01/l716.exe)
 Dipole        =-2.80961829D-01-7.87692998D-01 8.08957012D-01
 -------------------------------------------------------------------
 Center     Atomic                   Forces (Hartrees/Bohr)
 Number     Number              X              Y              Z
 -------------------------------------------------------------------
      1        6           0.002116218   -0.008290330    0.000706152
      2        1           0.002840640    0.001493138   -0.001201171
      3        1          -0.002638618   -0.000338409   -0.002496798
      4        1          -0.000859541    0.000563718    0.003314971
      5        7          -0.000289551   -0.000111617   -0.000107115
      6        6          -0.002312890    0.002620076    0.007854236
      7        1           0.002664686    0.002019917   -0.000761739
      8        1           0.000532326   -0.003333726    0.000825629
      9        1          -0.003052306    0.000835811   -0.001828620
     10        6          -0.007030706    0.000438798   -0.005023729
     11        1           0.002195360    0.002105273   -0.001618280
     12        1          -0.001279464    0.001225687    0.003034002
     13        1           0.000726928   -0.003478806   -0.000210046
     14        6           0.002112236    0.004164136   -0.005335059
     15        1           0.001690251   -0.002979250    0.000037020
     16        1          -0.000390443    0.001713337    0.002904022
     17        6           0.000842664   -0.002349629    0.004784551
     18        1          -0.001317142    0.002702606    0.000068638
     19        1           0.000528858   -0.001665094   -0.002443276
     20        8           0.000719802    0.001961672   -0.003019338
     21        1           0.002200692    0.000702693    0.000515948
 -------------------------------------------------------------------
 Cartesian Forces:  Max     0.008290330 RMS     0.002741680
 Leave Link  716 at Fri Aug 19 02:45:11 2022, MaxMem=    26214400 cpu:         0.4
 (Enter /home/software/gaussian//09.d01/l103.exe)

 GradGradGradGradGradGradGradGradGradGradGradGradGradGradGradGradGradGrad
 Berny optimization.
 FormGI is forming the generalized inverse of G from B-inverse, IUseBI=4.
 Internal  Forces:  Max     0.007980567 RMS     0.001967248
 Search for a local minimum.
 Step number   1 out of a maximum of  115
 All quantities printed in internal units (Hartrees-Bohrs-Radians)
 RMS Force = .19672D-02 SwitMx=.10000D-02 MixMth= 1
 Mixed Optimization -- RFO/linear search
 Second derivative matrix not updated -- first step.
 ITU=  0
     Eigenvalues ---    0.00245   0.00387   0.00407   0.00410   0.00420
     Eigenvalues ---    0.01604   0.03283   0.04445   0.04789   0.05021
     Eigenvalues ---    0.05078   0.05811   0.05866   0.05867   0.05890
     Eigenvalues ---    0.05918   0.05922   0.05960   0.05962   0.08798
     Eigenvalues ---    0.10768   0.12533   0.13271   0.14275   0.14592
     Eigenvalues ---    0.16000   0.16000   0.16000   0.16000   0.16000
     Eigenvalues ---    0.16000   0.16000   0.16000   0.16000   0.16000
     Eigenvalues ---    0.21893   0.22056   0.29780   0.31414   0.32523
     Eigenvalues ---    0.32681   0.32702   0.33485   0.33525   0.34140
     Eigenvalues ---    0.34144   0.34342   0.34343   0.34346   0.34352
     Eigenvalues ---    0.34353   0.34358   0.34364   0.34526   0.34558
     Eigenvalues ---    0.44533   0.55272
 RFO step:  Lambda=-1.29517284D-03 EMin= 2.45018658D-03
 Linear search not attempted -- first point.
 Iteration  1 RMS(Cart)=  0.02087148 RMS(Int)=  0.00006417
 Iteration  2 RMS(Cart)=  0.00009813 RMS(Int)=  0.00001162
 Iteration  3 RMS(Cart)=  0.00000001 RMS(Int)=  0.00001162
 ITry= 1 IFail=0 DXMaxC= 5.86D-02 DCOld= 1.00D+10 DXMaxT= 3.00D-01 DXLimC= 3.00D+00 Rises=F
 Variable       Old X    -DE/DX   Delta X   Delta X   Delta X     New X
                                 (Linear)    (Quad)   (Total)
    R1        2.06757  -0.00340   0.00000  -0.00986  -0.00986   2.05771
    R2        2.06398  -0.00359   0.00000  -0.01035  -0.01035   2.05363
    R3        2.06739  -0.00342   0.00000  -0.00993  -0.00993   2.05746
    R4        2.82915   0.00672   0.00000   0.02048   0.02048   2.84963
    R5        2.82877   0.00678   0.00000   0.02066   0.02066   2.84943
    R6        2.83197   0.00661   0.00000   0.02025   0.02025   2.85222
    R7        2.85230   0.00798   0.00000   0.02530   0.02530   2.87760
    R8        2.06749  -0.00340   0.00000  -0.00985  -0.00985   2.05764
    R9        2.06755  -0.00341   0.00000  -0.00990  -0.00990   2.05764
   R10        2.06451  -0.00361   0.00000  -0.01041  -0.01041   2.05411
   R11        2.06738  -0.00342   0.00000  -0.00993  -0.00993   2.05745
   R12        2.06730  -0.00348   0.00000  -0.01009  -0.01009   2.05721
   R13        2.06720  -0.00352   0.00000  -0.01020  -0.01020   2.05699
   R14        2.07094  -0.00339   0.00000  -0.00988  -0.00988   2.06106
   R15        2.07088  -0.00336   0.00000  -0.00979  -0.00979   2.06109
   R16        2.88403   0.00261   0.00000   0.00872   0.00872   2.89276
   R17        2.08207  -0.00297   0.00000  -0.00884  -0.00884   2.07324
   R18        2.08138  -0.00296   0.00000  -0.00881  -0.00881   2.07258
   R19        2.65821   0.00466   0.00000   0.01043   0.01043   2.66865
   R20        1.81591   0.00230   0.00000   0.00414   0.00414   1.82005
    A1        1.91166  -0.00051   0.00000  -0.00256  -0.00257   1.90909
    A2        1.92007  -0.00053   0.00000  -0.00386  -0.00386   1.91621
    A3        1.89611   0.00042   0.00000   0.00264   0.00264   1.89874
    A4        1.92349  -0.00065   0.00000  -0.00403  -0.00404   1.91945
    A5        1.91192   0.00076   0.00000   0.00495   0.00495   1.91687
    A6        1.90032   0.00053   0.00000   0.00302   0.00301   1.90333
    A7        1.91224  -0.00003   0.00000   0.00063   0.00060   1.91284
    A8        1.89729  -0.00015   0.00000  -0.00377  -0.00377   1.89353
    A9        1.93816   0.00018   0.00000   0.00354   0.00353   1.94169
   A10        1.89854  -0.00014   0.00000  -0.00338  -0.00338   1.89516
   A11        1.93775   0.00024   0.00000   0.00424   0.00423   1.94198
   A12        1.87874  -0.00011   0.00000  -0.00163  -0.00162   1.87712
   A13        1.89648   0.00039   0.00000   0.00226   0.00225   1.89873
   A14        1.89931   0.00073   0.00000   0.00444   0.00443   1.90374
   A15        1.91258   0.00064   0.00000   0.00427   0.00426   1.91684
   A16        1.92027  -0.00061   0.00000  -0.00438  -0.00438   1.91589
   A17        1.91146  -0.00049   0.00000  -0.00284  -0.00285   1.90861
   A18        1.92347  -0.00064   0.00000  -0.00358  -0.00359   1.91988
   A19        1.90071   0.00038   0.00000   0.00239   0.00239   1.90310
   A20        1.90084   0.00052   0.00000   0.00320   0.00319   1.90404
   A21        1.90123   0.00059   0.00000   0.00365   0.00365   1.90488
   A22        1.92011  -0.00044   0.00000  -0.00272  -0.00273   1.91738
   A23        1.92057  -0.00048   0.00000  -0.00293  -0.00294   1.91763
   A24        1.92003  -0.00054   0.00000  -0.00340  -0.00341   1.91662
   A25        1.86667  -0.00077   0.00000  -0.00062  -0.00061   1.86606
   A26        1.86674  -0.00076   0.00000  -0.00028  -0.00028   1.86646
   A27        2.02484   0.00342   0.00000   0.01769   0.01767   2.04251
   A28        1.89077   0.00030   0.00000  -0.00654  -0.00658   1.88419
   A29        1.90634  -0.00116   0.00000  -0.00596  -0.00601   1.90033
   A30        1.90427  -0.00114   0.00000  -0.00550  -0.00556   1.89871
   A31        1.94282   0.00008   0.00000   0.00040   0.00040   1.94322
   A32        1.93975   0.00010   0.00000   0.00037   0.00037   1.94012
   A33        1.79630   0.00000   0.00000   0.00098   0.00098   1.79728
   A34        1.89786  -0.00033   0.00000  -0.00452  -0.00452   1.89335
   A35        1.94287   0.00011   0.00000   0.00188   0.00188   1.94475
   A36        1.94353   0.00007   0.00000   0.00129   0.00129   1.94482
   A37        1.92281   0.00105   0.00000   0.00651   0.00651   1.92932
    D1        1.09243  -0.00020   0.00000  -0.00962  -0.00962   1.08281
    D2       -0.98018   0.00008   0.00000  -0.00367  -0.00367  -0.98385
    D3       -3.04389   0.00020   0.00000  -0.00144  -0.00143  -3.04533
    D4       -0.99519  -0.00029   0.00000  -0.01103  -0.01103  -1.00622
    D5       -3.06780  -0.00001   0.00000  -0.00508  -0.00508  -3.07288
    D6        1.15168   0.00011   0.00000  -0.00284  -0.00284   1.14884
    D7       -3.09977  -0.00028   0.00000  -0.01097  -0.01097  -3.11074
    D8        1.11081   0.00000   0.00000  -0.00502  -0.00502   1.10579
    D9       -0.95290   0.00012   0.00000  -0.00278  -0.00278  -0.95568
   D10       -1.12209   0.00023   0.00000   0.01307   0.01307  -1.10902
   D11        3.07025   0.00031   0.00000   0.01443   0.01443   3.08468
   D12        0.96590   0.00026   0.00000   0.01349   0.01349   0.97939
   D13        0.94975  -0.00005   0.00000   0.00687   0.00687   0.95662
   D14       -1.14110   0.00003   0.00000   0.00824   0.00824  -1.13286
   D15        3.03774  -0.00003   0.00000   0.00730   0.00730   3.04504
   D16        3.01399  -0.00014   0.00000   0.00529   0.00529   3.01928
   D17        0.92314  -0.00006   0.00000   0.00666   0.00666   0.92980
   D18       -1.18120  -0.00011   0.00000   0.00572   0.00571  -1.17549
   D19        1.02439  -0.00008   0.00000   0.00185   0.00185   1.02624
   D20       -1.06967  -0.00008   0.00000   0.00183   0.00183  -1.06784
   D21        3.11924  -0.00007   0.00000   0.00188   0.00188   3.12112
   D22       -1.05681   0.00013   0.00000   0.00523   0.00523  -1.05159
   D23        3.13231   0.00013   0.00000   0.00521   0.00521   3.13752
   D24        1.03804   0.00013   0.00000   0.00527   0.00526   1.04330
   D25        3.12527   0.00000   0.00000   0.00301   0.00301   3.12828
   D26        1.03121  -0.00001   0.00000   0.00300   0.00300   1.03420
   D27       -1.06307   0.00000   0.00000   0.00305   0.00305  -1.06002
   D28        3.04897  -0.00032   0.00000  -0.00581  -0.00583   3.04315
   D29        1.02624   0.00008   0.00000   0.00217   0.00218   1.02842
   D30       -1.10266  -0.00014   0.00000  -0.00223  -0.00223  -1.10490
   D31       -1.10211  -0.00007   0.00000   0.00041   0.00040  -1.10171
   D32       -3.12484   0.00033   0.00000   0.00839   0.00841  -3.11643
   D33        1.02944   0.00011   0.00000   0.00399   0.00399   1.03344
   D34        0.97408  -0.00018   0.00000  -0.00226  -0.00228   0.97180
   D35       -1.04866   0.00022   0.00000   0.00572   0.00573  -1.04292
   D36        3.10562   0.00001   0.00000   0.00132   0.00132   3.10694
   D37        1.02212  -0.00015   0.00000  -0.00180  -0.00180   1.02032
   D38       -1.09625   0.00015   0.00000   0.00343   0.00343  -1.09282
   D39        3.10488   0.00003   0.00000   0.00117   0.00118   3.10605
   D40        3.13254   0.00033   0.00000   0.00511   0.00508   3.13762
   D41        1.01417   0.00063   0.00000   0.01033   0.01031   1.02448
   D42       -1.06789   0.00050   0.00000   0.00808   0.00806  -1.05983
   D43       -1.08677  -0.00064   0.00000  -0.00946  -0.00943  -1.09621
   D44        3.07805  -0.00034   0.00000  -0.00423  -0.00421   3.07384
   D45        0.99599  -0.00047   0.00000  -0.00648  -0.00646   0.98953
   D46        3.11823  -0.00002   0.00000  -0.00136  -0.00136   3.11686
   D47       -1.08223   0.00013   0.00000   0.00058   0.00058  -1.08164
   D48        1.03879  -0.00017   0.00000  -0.00299  -0.00299   1.03581
         Item               Value     Threshold  Converged?
 Maximum Force            0.007981     0.000002     NO 
 RMS     Force            0.001967     0.000001     NO 
 Maximum Displacement     0.058611     0.000006     NO 
 RMS     Displacement     0.020845     0.000004     NO 
 Predicted change in Energy=-6.514682D-04
 Lowest energy point so far.  Saving SCF results.
 GradGradGradGradGradGradGradGradGradGradGradGradGradGradGradGradGradGrad

 Leave Link  103 at Fri Aug 19 02:45:13 2022, MaxMem=    26214400 cpu:        20.3
 (Enter /home/software/gaussian//09.d01/l202.exe)
                          Input orientation:                          
 ---------------------------------------------------------------------
 Center     Atomic      Atomic             Coordinates (Angstroms)
 Number     Number       Type             X           Y           Z
 ---------------------------------------------------------------------
      1          6           0        0.010037   -1.819523    0.227393
      2          1           0       -0.826824   -2.415448    0.588258
      3          1           0        0.844186   -1.913995    0.917514
      4          1           0        0.306104   -2.161425   -0.762987
      5          7           0       -0.421982   -0.377327    0.141521
      6          6           0       -0.793701    0.121918    1.514913
      7          1           0       -1.652613   -0.443454    1.873010
      8          1           0       -1.048399    1.178729    1.452520
      9          1           0        0.040670   -0.019790    2.197032
     10          6           0       -1.639734   -0.294457   -0.746332
     11          1           0       -2.428415   -0.916624   -0.326470
     12          1           0       -1.379319   -0.649358   -1.741995
     13          1           0       -1.973307    0.740346   -0.799001
     14          6           0        0.663207    0.487504   -0.485556
     15          1           0        0.242606    1.486536   -0.606305
     16          1           0        0.857871    0.082270   -1.479274
     17          6           0        1.989536    0.596528    0.270920
     18          1           0        2.447129   -0.389604    0.418580
     19          1           0        1.848091    1.064672    1.252610
     20          8           0        2.773684    1.407045   -0.579048
     21          1           0        3.640172    1.565880   -0.189699
 ---------------------------------------------------------------------
                    Distance matrix (angstroms):
                    1          2          3          4          5
     1  C    0.000000
     2  H    1.088892   0.000000
     3  H    1.086736   1.775426   0.000000
     4  H    1.088763   1.781548   1.781807   0.000000
     5  N    1.507960   2.125419   2.136982   2.128672   0.000000
     6  C    2.464325   2.701484   2.680392   3.407646   1.507855
     7  H    2.714043   2.494249   3.051142   3.706275   2.125295
     8  H    3.407454   3.703262   3.665112   4.230813   2.128950
     9  H    2.668231   3.013283   2.422977   3.663163   2.137055
    10  C    2.448615   2.634494   3.400168   2.696689   1.509329
    11  H    2.658579   2.376614   3.640351   3.036061   2.129702
    12  H    2.679195   2.975635   3.690022   2.466871   2.130288
    13  H    3.397068   3.632898   4.234408   3.690161   2.130819
    14  C    2.501460   3.435171   2.787213   2.687250   1.522759
    15  H    3.417480   4.218548   3.774591   3.651876   2.115398
    16  H    2.692277   3.653968   3.119271   2.419025   2.115710
    17  C    3.123718   4.135769   2.834190   3.392523   2.603950
    18  H    2.832073   3.853778   2.267626   3.019841   2.882483
    19  H    3.570447   4.439343   3.161103   4.104638   2.909830
    20  O    4.324215   5.379378   4.122131   4.342437   3.730346
    21  H    4.981245   6.034090   4.599238   5.033634   4.515181
                    6          7          8          9         10
     6  C    0.000000
     7  H    1.088857   0.000000
     8  H    1.088858   1.781393   0.000000
     9  H    1.086987   1.775299   1.782362   0.000000
    10  C    2.449974   2.623608   2.711993   3.400381   0.000000
    11  H    2.672368   2.379804   3.075671   3.642630   1.088758
    12  H    3.397832   3.631163   3.695448   4.234224   1.088629
    13  H    2.669855   2.940045   2.473254   3.689190   1.088514
    14  C    2.501622   3.434027   2.676477   2.800211   2.446019
    15  H    2.726845   3.669294   2.449532   3.188808   2.595140
    16  H    3.419710   4.220986   3.664902   3.767421   2.630049
    17  C    3.085317   4.112603   3.311222   2.808529   3.873017
    18  H    3.459275   4.350420   3.968302   3.015079   4.250709
    19  H    2.817206   3.861899   2.905620   2.309710   4.243575
    20  O    4.331565   5.387860   4.334480   4.148716   4.733007
    21  H    4.964872   6.025427   4.982918   4.600789   5.625665
                   11         12         13         14         15
    11  H    0.000000
    12  H    1.782062   0.000000
    13  H    1.782122   1.781386   0.000000
    14  C    3.399267   2.653866   2.667093   0.000000
    15  H    3.603865   2.912469   2.346104   1.090666   0.000000
    16  H    3.623041   2.368401   2.985198   1.090680   1.764252
    17  C    4.707950   4.117431   4.107255   1.530781   2.147883
    18  H    4.960220   4.401961   4.722240   2.183841   3.070866
    19  H    4.970667   4.724587   4.349411   2.181351   2.492211
    20  O    5.703076   4.777936   4.798624   2.303998   2.532473
    21  H    6.558147   5.701946   5.706480   3.180054   3.423932
                   16         17         18         19         20
    16  H    0.000000
    17  C    2.146696   0.000000
    18  H    2.519972   1.097111   0.000000
    19  H    3.067383   1.096760   1.780273   0.000000
    20  O    2.497153   1.412186   2.080829   2.080604   0.000000
    21  H    3.406655   1.968861   2.370079   2.354362   0.963132
                   21
    21  H    0.000000
 Symmetry turned off by external request.
 Stoichiometry    C5H14NO(1+)
 Framework group  C1[X(C5H14NO)]
 Deg. of freedom    57
 Full point group                 C1      NOp   1
 Rotational constants (GHZ):      4.2648043      1.4461668      1.4222431
 Leave Link  202 at Fri Aug 19 02:45:13 2022, MaxMem=    26214400 cpu:         1.2
 (Enter /home/software/gaussian//09.d01/l301.exe)
 Standard basis: 6-311+G(d,p) (5D, 7F)
 Ernie: Thresh=  0.10000D-02 Tol=  0.10000D-05 Strict=F.
   238 basis functions,   364 primitive gaussians,   245 cartesian basis functions
    29 alpha electrons       29 beta electrons
       nuclear repulsion energy       353.4468447361 Hartrees.
 IExCor=  402 DFT=T Ex+Corr=B3LYP ExCW=0 ScaHFX=  0.200000
 ScaDFX=  0.800000  0.720000  1.000000  0.810000 ScalE2=  1.000000  1.000000
 IRadAn=      0 IRanWt=     -1 IRanGd=            0 ICorTp=0 IEmpDi=  4
 NAtoms=   21 NActive=   21 NUniq=   21 SFac= 1.00D+00 NAtFMM=   60 NAOKFM=F Big=F
 Integral buffers will be    131072 words long.
 Raffenetti 2 integral format.
 Two-electron integral symmetry is turned off.
 Leave Link  301 at Fri Aug 19 02:45:13 2022, MaxMem=    26214400 cpu:         0.1
 (Enter /home/software/gaussian//09.d01/l302.exe)
 NPDir=0 NMtPBC=     1 NCelOv=     1 NCel=       1 NClECP=     1 NCelD=      1
         NCelK=      1 NCelE2=     1 NClLst=     1 CellRange=     0.0.
 One-electron integrals computed using PRISM.
 PrsmSu:  requested number of processors reduced to:   7 ShMem   1 Linda.
 NBasis=   238 RedAO= T EigKep=  2.91D-05  NBF=   238
 NBsUse=   238 1.00D-06 EigRej= -1.00D+00 NBFU=   238
 Precomputing XC quadrature grid using
 IXCGrd= 4 IRadAn=           0 IRanWt=          -1 IRanGd=           0 AccXCQ= 0.00D+00.
 Generated NRdTot=       0 NPtTot=           0 NUsed=           0 NTot=          32
 NSgBfM=   245   245   245   245   245 MxSgAt=    21 MxSgA2=    21.
 Leave Link  302 at Fri Aug 19 02:45:15 2022, MaxMem=    26214400 cpu:        15.0
 (Enter /home/software/gaussian//09.d01/l303.exe)
 DipDrv:  MaxL=1.
 Leave Link  303 at Fri Aug 19 02:45:16 2022, MaxMem=    26214400 cpu:         2.1
 (Enter /home/software/gaussian//09.d01/l401.exe)
 Initial guess from the checkpoint file:  "cholinecation.chk"
 B after Tr=     0.002934    0.001449   -0.000069
         Rot=    1.000000    0.000147   -0.000378   -0.000234 Ang=   0.05 deg.
 Guess basis will be translated and rotated to current coordinates.
 JPrj=2 DoOrth=T DoCkMO=T.
 Generating alternative initial guess.
 ExpMin= 4.38D-02 ExpMax= 8.59D+03 ExpMxC= 1.30D+03 IAcc=2 IRadAn=         4 AccDes= 0.00D+00
 Harris functional with IExCor=  402 and IRadAn=       4 diagonalized for initial guess.
 HarFok:  IExCor=  402 AccDes= 0.00D+00 IRadAn=         4 IDoV= 1 UseB2=F ITyADJ=14
 ICtDFT=  3500011 ScaDFX=  1.000000  1.000000  1.000000  1.000000
 FoFCou: FMM=F IPFlag=           0 FMFlag=      100000 FMFlg1=           0
         NFxFlg=           0 DoJE=T BraDBF=F KetDBF=T FulRan=T
         wScrn=  0.000000 ICntrl=     500 IOpCl=  0 I1Cent=   200000004 NGrid=           0
         NMat0=    1 NMatS0=      1 NMatT0=    0 NMatD0=    1 NMtDS0=    0 NMtDT0=    0
 Symmetry not used in FoFCou.
 Harris En= -328.837600053152    
 Leave Link  401 at Fri Aug 19 02:45:19 2022, MaxMem=    26214400 cpu:        23.3
 (Enter /home/software/gaussian//09.d01/l502.exe)
 Closed shell SCF:
 Using DIIS extrapolation, IDIIS=  1040.
 Two-electron integral symmetry not used.
 IVT=      191449 IEndB=      191449 NGot=    26214400 MDV=    26087446
 LenX=    26087446 LenY=    26026980
 Requested convergence on RMS density matrix=1.00D-08 within  64 cycles.
 Requested convergence on MAX density matrix=1.00D-06.
 Requested convergence on             energy=1.00D-06.
 No special actions if energy rises.
 Fock matrices will be formed incrementally for  20 cycles.

 Cycle   1  Pass 1  IDiag  1:
 FoFJK:  IHMeth= 1 ICntrl=       0 DoSepK=F KAlg= 0 I1Cent=   0 FoldK=F
 IRaf= 960000000 NMat=   1 IRICut=       1 DoRegI=T DoRafI=F ISym2E= 0.
 FoFCou: FMM=F IPFlag=           0 FMFlag=      100000 FMFlg1=           0
         NFxFlg=           0 DoJE=F BraDBF=F KetDBF=F FulRan=T
         wScrn=  0.000000 ICntrl=       0 IOpCl=  0 I1Cent=           0 NGrid=           0
         NMat0=    1 NMatS0=      1 NMatT0=    0 NMatD0=    1 NMtDS0=    0 NMtDT0=    0
 Symmetry not used in FoFCou.
 E= -328.781529783288    
 DIIS: error= 9.76D-04 at cycle   1 NSaved=   1.
 NSaved= 1 IEnMin= 1 EnMin= -328.781529783288     IErMin= 1 ErrMin= 9.76D-04
 ErrMax= 9.76D-04  0.00D+00 EMaxC= 1.00D-01 BMatC= 3.53D-04 BMatP= 3.53D-04
 IDIUse=3 WtCom= 9.90D-01 WtEn= 9.76D-03
 Coeff-Com:  0.100D+01
 Coeff-En:   0.100D+01
 Coeff:      0.100D+01
 Gap=     0.488 Goal=   None    Shift=    0.000
 RMSDP=2.13D-04 MaxDP=5.56D-03              OVMax= 4.46D-03

 Cycle   2  Pass 1  IDiag  1:
 RMSU=  2.11D-04    CP:  9.97D-01
 E= -328.781913680532     Delta-E=       -0.000383897244 Rises=F Damp=F
 DIIS: error= 6.42D-04 at cycle   2 NSaved=   2.
 NSaved= 2 IEnMin= 2 EnMin= -328.781913680532     IErMin= 2 ErrMin= 6.42D-04
 ErrMax= 6.42D-04  0.00D+00 EMaxC= 1.00D-01 BMatC= 5.34D-05 BMatP= 3.53D-04
 IDIUse=3 WtCom= 9.94D-01 WtEn= 6.42D-03
 Coeff-Com:  0.167D+00 0.833D+00
 Coeff-En:   0.000D+00 0.100D+01
 Coeff:      0.165D+00 0.835D+00
 Gap=     0.282 Goal=   None    Shift=    0.000
 RMSDP=5.16D-05 MaxDP=2.40D-03 DE=-3.84D-04 OVMax= 2.60D-03

 Cycle   3  Pass 1  IDiag  1:
 RMSU=  4.66D-05    CP:  9.98D-01  9.08D-01
 E= -328.781901910836     Delta-E=        0.000011769696 Rises=F Damp=F
 DIIS: error= 8.38D-04 at cycle   3 NSaved=   3.
 NSaved= 3 IEnMin= 2 EnMin= -328.781913680532     IErMin= 2 ErrMin= 6.42D-04
 ErrMax= 8.38D-04  0.00D+00 EMaxC= 1.00D-01 BMatC= 7.36D-05 BMatP= 5.34D-05
 IDIUse=3 WtCom= 2.57D-01 WtEn= 7.43D-01
 Coeff-Com: -0.172D-01 0.546D+00 0.471D+00
 Coeff-En:   0.000D+00 0.550D+00 0.450D+00
 Coeff:     -0.441D-02 0.549D+00 0.456D+00
 Gap=     0.282 Goal=   None    Shift=    0.000
 RMSDP=2.90D-05 MaxDP=1.48D-03 DE= 1.18D-05 OVMax= 1.39D-03

 Cycle   4  Pass 1  IDiag  1:
 RMSU=  9.90D-06    CP:  9.98D-01  9.71D-01  5.12D-01
 E= -328.781958032749     Delta-E=       -0.000056121914 Rises=F Damp=F
 DIIS: error= 5.29D-05 at cycle   4 NSaved=   4.
 NSaved= 4 IEnMin= 4 EnMin= -328.781958032749     IErMin= 4 ErrMin= 5.29D-05
 ErrMax= 5.29D-05  0.00D+00 EMaxC= 1.00D-01 BMatC= 5.58D-07 BMatP= 5.34D-05
 IDIUse=1 WtCom= 1.00D+00 WtEn= 0.00D+00
 Coeff-Com: -0.105D-01 0.192D+00 0.170D+00 0.648D+00
 Coeff:     -0.105D-01 0.192D+00 0.170D+00 0.648D+00
 Gap=     0.282 Goal=   None    Shift=    0.000
 RMSDP=4.03D-06 MaxDP=1.37D-04 DE=-5.61D-05 OVMax= 1.81D-04

 Cycle   5  Pass 1  IDiag  1:
 RMSU=  2.62D-06    CP:  9.98D-01  9.78D-01  5.07D-01  7.33D-01
 E= -328.781958485823     Delta-E=       -0.000000453073 Rises=F Damp=F
 DIIS: error= 2.90D-05 at cycle   5 NSaved=   5.
 NSaved= 5 IEnMin= 5 EnMin= -328.781958485823     IErMin= 5 ErrMin= 2.90D-05
 ErrMax= 2.90D-05  0.00D+00 EMaxC= 1.00D-01 BMatC= 8.06D-08 BMatP= 5.58D-07
 IDIUse=1 WtCom= 1.00D+00 WtEn= 0.00D+00
 Coeff-Com: -0.395D-02 0.521D-01 0.449D-01 0.309D+00 0.598D+00
 Coeff:     -0.395D-02 0.521D-01 0.449D-01 0.309D+00 0.598D+00
 Gap=     0.282 Goal=   None    Shift=    0.000
 RMSDP=1.63D-06 MaxDP=6.24D-05 DE=-4.53D-07 OVMax= 4.97D-05

 Cycle   6  Pass 1  IDiag  1:
 RMSU=  1.09D-06    CP:  9.98D-01  9.81D-01  4.92D-01  7.89D-01  8.34D-01
 E= -328.781958553789     Delta-E=       -0.000000067966 Rises=F Damp=F
 DIIS: error= 6.75D-06 at cycle   6 NSaved=   6.
 NSaved= 6 IEnMin= 6 EnMin= -328.781958553789     IErMin= 6 ErrMin= 6.75D-06
 ErrMax= 6.75D-06  0.00D+00 EMaxC= 1.00D-01 BMatC= 5.22D-09 BMatP= 8.06D-08
 IDIUse=1 WtCom= 1.00D+00 WtEn= 0.00D+00
 Coeff-Com: -0.101D-02 0.849D-02 0.722D-02 0.872D-01 0.268D+00 0.630D+00
 Coeff:     -0.101D-02 0.849D-02 0.722D-02 0.872D-01 0.268D+00 0.630D+00
 Gap=     0.282 Goal=   None    Shift=    0.000
 RMSDP=3.94D-07 MaxDP=1.15D-05 DE=-6.80D-08 OVMax= 2.01D-05

 Cycle   7  Pass 1  IDiag  1:
 RMSU=  2.28D-07    CP:  9.98D-01  9.80D-01  4.94D-01  8.05D-01  8.59D-01
                    CP:  7.83D-01
 E= -328.781958557135     Delta-E=       -0.000000003346 Rises=F Damp=F
 DIIS: error= 2.69D-06 at cycle   7 NSaved=   7.
 NSaved= 7 IEnMin= 7 EnMin= -328.781958557135     IErMin= 7 ErrMin= 2.69D-06
 ErrMax= 2.69D-06  0.00D+00 EMaxC= 1.00D-01 BMatC= 1.02D-09 BMatP= 5.22D-09
 IDIUse=1 WtCom= 1.00D+00 WtEn= 0.00D+00
 Coeff-Com: -0.116D-03-0.122D-02-0.101D-02 0.164D-01 0.894D-01 0.363D+00
 Coeff-Com:  0.534D+00
 Coeff:     -0.116D-03-0.122D-02-0.101D-02 0.164D-01 0.894D-01 0.363D+00
 Coeff:      0.534D+00
 Gap=     0.282 Goal=   None    Shift=    0.000
 RMSDP=1.26D-07 MaxDP=4.54D-06 DE=-3.35D-09 OVMax= 6.59D-06

 Cycle   8  Pass 1  IDiag  1:
 RMSU=  6.52D-08    CP:  9.98D-01  9.80D-01  4.95D-01  8.02D-01  8.63D-01
                    CP:  7.94D-01  6.11D-01
 E= -328.781958557858     Delta-E=       -0.000000000724 Rises=F Damp=F
 DIIS: error= 3.11D-07 at cycle   8 NSaved=   8.
 NSaved= 8 IEnMin= 8 EnMin= -328.781958557858     IErMin= 8 ErrMin= 3.11D-07
 ErrMax= 3.11D-07  0.00D+00 EMaxC= 1.00D-01 BMatC= 2.27D-11 BMatP= 1.02D-09
 IDIUse=1 WtCom= 1.00D+00 WtEn= 0.00D+00
 Coeff-Com:  0.121D-04-0.902D-03-0.754D-03 0.126D-02 0.158D-01 0.990D-01
 Coeff-Com:  0.205D+00 0.680D+00
 Coeff:      0.121D-04-0.902D-03-0.754D-03 0.126D-02 0.158D-01 0.990D-01
 Coeff:      0.205D+00 0.680D+00
 Gap=     0.282 Goal=   None    Shift=    0.000
 RMSDP=2.66D-08 MaxDP=7.40D-07 DE=-7.24D-10 OVMax= 7.92D-07

 Cycle   9  Pass 1  IDiag  1:
 RMSU=  2.03D-08    CP:  9.98D-01  9.80D-01  4.95D-01  8.02D-01  8.64D-01
                    CP:  8.00D-01  5.93D-01  7.99D-01
 E= -328.781958557882     Delta-E=       -0.000000000023 Rises=F Damp=F
 DIIS: error= 7.70D-08 at cycle   9 NSaved=   9.
 NSaved= 9 IEnMin= 9 EnMin= -328.781958557882     IErMin= 9 ErrMin= 7.70D-08
 ErrMax= 7.70D-08  0.00D+00 EMaxC= 1.00D-01 BMatC= 1.08D-12 BMatP= 2.27D-11
 IDIUse=1 WtCom= 1.00D+00 WtEn= 0.00D+00
 Coeff-Com:  0.847D-05-0.270D-03-0.234D-03-0.234D-03 0.133D-02 0.196D-01
 Coeff-Com:  0.560D-01 0.260D+00 0.664D+00
 Coeff:      0.847D-05-0.270D-03-0.234D-03-0.234D-03 0.133D-02 0.196D-01
 Coeff:      0.560D-01 0.260D+00 0.664D+00
 Gap=     0.282 Goal=   None    Shift=    0.000
 RMSDP=8.64D-09 MaxDP=2.94D-07 DE=-2.32D-11 OVMax= 2.74D-07

 SCF Done:  E(RB3LYP) =  -328.781958558     A.U. after    9 cycles
            NFock=  9  Conv=0.86D-08     -V/T= 2.0045
 KE= 3.273076414440D+02 PE=-1.460790799268D+03 EE= 4.512543545300D+02
 Leave Link  502 at Fri Aug 19 02:45:32 2022, MaxMem=    26214400 cpu:       152.8
 (Enter /home/software/gaussian//09.d01/l508.exe)
 QCSCF skips out because SCF is already converged.
 Leave Link  508 at Fri Aug 19 02:45:32 2022, MaxMem=    26214400 cpu:         0.0
 (Enter /home/software/gaussian//09.d01/l701.exe)
 Compute integral first derivatives.
 ... and contract with generalized density number  0.
 PrsmSu:  requested number of processors reduced to:   7 ShMem   1 Linda.
 PrsmSu:  requested number of processors reduced to:  12 ShMem   1 Linda.
 Leave Link  701 at Fri Aug 19 02:45:32 2022, MaxMem=    26214400 cpu:         2.9
 (Enter /home/software/gaussian//09.d01/l702.exe)
 L702 exits ... SP integral derivatives will be done elsewhere.
 Leave Link  702 at Fri Aug 19 02:45:32 2022, MaxMem=    26214400 cpu:         0.0
 (Enter /home/software/gaussian//09.d01/l703.exe)
 Compute integral first derivatives, UseDBF=F ICtDFT=           0.
 Integral derivatives from FoFJK, PRISM(SPDF).
 Calling FoFJK, ICntrl=      2127 FMM=F ISym2X=0 I1Cent= 0 IOpClX= 0 NMat=1 NMatS=1 NMatT=0.
 FoFJK:  IHMeth= 1 ICntrl=    2127 DoSepK=F KAlg= 0 I1Cent=   0 FoldK=F
 IRaf=         0 NMat=   1 IRICut=       1 DoRegI=T DoRafI=F ISym2E= 0.
 FoFCou: FMM=F IPFlag=           0 FMFlag=      100000 FMFlg1=         800
         NFxFlg=           0 DoJE=F BraDBF=F KetDBF=F FulRan=T
         wScrn=  0.000000 ICntrl=    2127 IOpCl=  0 I1Cent=           0 NGrid=           0
         NMat0=    1 NMatS0=      1 NMatT0=    0 NMatD0=    1 NMtDS0=    0 NMtDT0=    0
 Symmetry not used in FoFCou.
 CoulSu:  requested number of processors reduced to:  12 ShMem   1 Linda.
 Leave Link  703 at Fri Aug 19 02:45:35 2022, MaxMem=    26214400 cpu:        26.2
 (Enter /home/software/gaussian//09.d01/l716.exe)
[...]
 9211,-0.10799324,-0.02738933,-0.00157734,-0.03278199,-0.00161631,0.000
 07414,0.00109587,-0.00045328,0.00106858,0.00158229,0.00150150,-0.00207
 264,-0.00414366,-0.10217506,0.00554662,0.55582798,0.00043576,-0.002087
 61,0.00109368,0.00006222,0.00086429,-0.00048750,0.00042598,0.00023555,
 -0.00009361,-0.00011768,0.00010974,-0.00001754,-0.02548026,-0.01516974
 ,0.00812923,0.00028758,0.00020711,0.00203425,0.00063708,0.00006328,-0.
 00060300,0.00003949,0.00002289,-0.00017232,0.00025759,0.00025065,-0.00
 004880,-0.18524808,-0.10814126,0.07626893,0.20569603,0.00133192,0.0008
 8143,-0.00009640,0.00051259,0.00006011,0.00037705,-0.00002081,0.000007
 92,-0.00011155,0.00005124,-0.00003417,-0.00008404,0.00357404,0.0001288
 9,-0.00128624,-0.00021274,-0.00030794,0.00030034,-0.00002252,0.0004281
 7,-0.00051578,-0.00017098,-0.00013355,0.00010157,0.00034123,0.00005199
 ,-0.00017249,-0.11475896,-0.14094876,0.06431358,0.12112224,0.14546162,
 0.00006226,-0.00124646,0.00031817,-0.00007333,0.00018863,0.00027976,-0
 .00000736,-0.00022691,-0.00002761,0.00014243,0.00025349,-0.00010228,-0
 .02018063,-0.01327275,0.00500152,-0.00155119,-0.00050749,0.00157732,-0
 .00022789,0.00000243,-0.00047234,0.00007944,-0.00007506,-0.00015853,0.
 00012880,0.00005728,0.00009866,0.08626773,0.06863714,-0.09798922,-0.08
 129148,-0.07079086,0.10175591,0.00105911,-0.00166397,-0.00041500,-0.00
 014316,0.00023999,0.00016294,-0.00000814,-0.00018314,0.00010597,0.0000
 1584,0.00037555,0.00009055,0.00191760,-0.01051603,-0.03102207,-0.00488
 840,0.00074095,-0.00185524,0.00009242,0.00030498,-0.00021108,-0.000147
 02,-0.00016343,0.00002010,0.00082732,-0.00060824,-0.00159344,-0.070613
 22,0.02776503,0.07414577,-0.00353434,0.00943003,0.01951649,0.07632049,
 -0.00007014,0.00063471,0.00115649,-0.00013500,0.00000154,0.00011816,-0
 .00012263,-0.00008755,-0.00007822,0.00057803,0.00000892,0.00021319,-0.
 00065080,-0.00105039,0.00325842,0.00019301,-0.00010140,0.00058540,0.00
 021368,0.00000152,-0.00012925,0.00003557,0.00032775,0.00021693,0.00005
 173,0.00065584,0.00006418,0.02412406,-0.08216276,-0.08653032,-0.003581
 08,0.00728755,0.01753649,-0.02725491,0.08198586,0.00124100,-0.00122510
 ,0.00022548,-0.00001440,0.00006230,-0.00014313,-0.00006613,0.00014063,
 0.00036288,-0.00044625,0.00046808,0.00047332,0.00199529,-0.00610482,-0
 .02037012,-0.00366840,0.00108531,-0.00073850,-0.00006753,-0.00000550,0
 .00028403,0.00005673,-0.00005520,0.00009654,0.00036105,-0.00052787,-0.
 00072140,0.06230789,-0.08329461,-0.27296432,0.00263167,-0.00417039,-0.
 00833667,-0.06554193,0.09172822,0.29598941,-0.00389995,-0.00166493,-0.
 00303525,0.00019989,0.00013763,-0.00020651,-0.00003314,0.00167961,-0.0
 0015324,0.00000071,-0.00018624,0.00002686,-0.01420477,0.02741576,-0.00
 385622,0.00037483,0.00066335,0.00170496,0.00001104,-0.00026870,-0.0001
 6543,0.00035019,-0.00029463,-0.00043416,-0.00008970,-0.00015410,0.0001
 5737,-0.07066017,0.06856109,-0.00357514,0.00963332,-0.02179697,0.00054
 965,-0.00171381,0.00694151,-0.00011660,0.07950309,-0.00007648,0.000739
 73,0.00030186,0.00001093,0.00023998,-0.00026160,-0.00002190,0.00027638
 ,-0.00004056,-0.00021325,0.00006709,0.00000360,-0.00078826,0.00033464,
 -0.00000224,-0.00055398,0.00036106,-0.00042768,0.00009277,-0.00019917,
 0.00005290,-0.00008076,0.00050265,0.00018530,-0.00011858,0.00026454,0.
 00007763,0.07875243,-0.30468075,0.01294597,0.00548907,-0.01374425,-0.0
 0067686,0.00125679,-0.00744411,0.00128075,-0.08247104,0.32193159,-0.00
 284688,-0.00086388,-0.00257084,-0.00002454,-0.00024635,-0.00006044,-0.
 00051391,0.00122431,0.00051782,-0.00025953,0.00016207,0.00021778,-0.00
 908857,0.02100227,-0.00511366,-0.00035293,0.00165401,0.00131725,0.0000
 5372,0.00008565,-0.00015993,-0.00048804,-0.00027448,-0.00046327,0.0001
 8724,-0.00019438,0.00008149,-0.00176400,0.00564315,-0.04997936,-0.0040
 6740,0.01198118,-0.00027369,0.00829017,-0.02758730,0.00456464,0.009637
 12,-0.01268204,0.05159174,0.01183511,-0.00218955,-0.00323510,-0.000975
 52,0.00427762,-0.00050566,-0.00000375,0.00117952,-0.00080237,0.0002460
 9,0.00119234,-0.00012921,-0.10741123,-0.01000173,0.00521993,-0.0078525
 8,-0.00170040,0.01254590,0.00079370,0.00023369,-0.00041062,0.00015123,
 -0.00076087,-0.00069048,0.00086621,0.00029809,-0.00174671,-0.03592526,
 -0.01965490,0.00607639,-0.00307390,0.00042521,-0.00226805,0.00148304,0
 .00021812,0.00183822,0.00106674,-0.00112041,0.00114825,0.47594546,-0.0
 2326857,-0.02825241,0.01400784,0.00281611,-0.00428045,0.00053649,0.000
 05752,0.00158457,0.00010636,-0.00112835,0.00133731,0.00054040,-0.01436
 371,-0.10209022,0.00673207,0.00721938,0.00973193,0.00194314,0.00133386
 ,-0.00118710,-0.00397652,0.00144846,0.00035070,-0.00178167,-0.00011537
 ,-0.00011277,-0.00050610,-0.00796284,0.00057716,-0.00388675,0.00169997
 ,-0.00032634,0.00072457,0.00038200,-0.00014433,0.00058652,0.00258374,0
 .00040145,0.00058691,-0.08350125,0.57345457,0.00070603,0.00740810,-0.0
 0065587,-0.00033533,-0.00113880,-0.00006270,0.00034967,-0.00009182,-0.
 00032713,-0.00035375,-0.00226582,0.00050557,0.01193720,0.00973524,-0.0
 9926002,0.02716335,0.01623565,-0.01874318,-0.00011129,-0.00199605,-0.0
 0486103,-0.00042528,0.00105352,0.00171066,-0.00057774,0.00073282,0.000
 44612,-0.01190935,-0.01148549,0.01130325,-0.00428423,-0.00006602,-0.00
 308496,-0.00210704,-0.00067400,0.00003741,-0.00063189,-0.00052069,-0.0
 0013774,0.01425155,0.06054906,0.56266928,-0.00423477,-0.00191619,0.001
 99094,0.00085853,-0.00146662,0.00015400,-0.00005734,-0.00007810,0.0001
 5322,-0.00010863,0.00002923,-0.00011496,0.00411570,-0.02852983,0.00416
 915,0.00077903,-0.00080341,-0.00116506,0.00001351,-0.00000345,-0.00014
 082,0.00006486,0.00012678,0.00013706,-0.00010166,0.00008940,0.00011155
 ,0.00133342,-0.00180958,0.00107757,0.00014338,0.00008075,-0.00003707,-
 0.00013497,0.00009397,-0.00014084,-0.00062033,-0.00020225,0.00004862,-
 0.09134493,0.10541561,-0.00750642,0.10399035,-0.00310054,0.00015334,0.
 00121492,0.00033921,-0.00071833,0.00024838,0.00004875,0.00003145,-0.00
 000858,-0.00001182,0.00027925,0.00004406,0.00314020,-0.02106137,0.0026
 0277,0.00086396,0.00017388,-0.00110511,-0.00013925,0.00030511,-0.00005
 336,-0.00026650,0.00066055,0.00050905,-0.00006269,0.00005282,0.0000327
 9,0.00179712,-0.00008226,0.00035826,-0.00014772,0.00050064,-0.00010758
 ,-0.00008787,-0.00013666,-0.00003491,-0.00072952,0.00065454,-0.0002014
 1,0.09539322,-0.27435902,0.01907724,-0.10034437,0.29752630,0.00218962,
 0.00011724,-0.00104798,-0.00035514,0.00077883,0.00038396,-0.00006826,-
 0.00008592,0.00002361,-0.00000596,0.00028668,0.00024929,-0.00282394,0.
 01755193,-0.00442661,-0.00093757,0.00146444,0.00067774,0.00003116,-0.0
 0028462,0.00007094,0.00063064,-0.00015120,-0.00023219,0.00007861,0.000
 05481,-0.00011445,-0.00090704,-0.00063457,0.00004311,-0.00005043,-0.00
 000932,-0.00023811,0.00022044,-0.00022387,0.00000560,-0.00015378,-0.00
 027895,0.00060349,-0.00653248,0.01389490,-0.05175039,0.00839975,-0.023
 13037,0.05367455,0.00019234,0.00144533,-0.00024911,-0.00005177,0.00006
 168,-0.00013532,0.00001313,-0.00014021,-0.00010769,0.00039114,-0.00019
 341,-0.00013442,-0.01047073,0.00643142,0.02457319,-0.00329017,-0.00325
 718,0.00047155,0.00005450,0.00035590,0.00142589,0.00006619,-0.00012794
 ,-0.00024387,-0.00003080,-0.00011040,0.00011375,0.00081278,0.00050652,
 0.00230253,0.00012925,0.00004548,-0.00034366,-0.00068753,-0.00060989,-
 0.00021962,-0.00016059,0.00003451,-0.00002346,-0.05437438,0.01540329,0
 .03629659,-0.00123947,0.00458205,0.01048652,0.06689756,-0.00048220,0.0
 0158434,0.00129109,0.00005479,0.00008286,-0.00015361,-0.00001431,-0.00
 015567,0.00003455,-0.00024333,-0.00031898,0.00002463,-0.00836895,0.003
 83235,0.02313291,-0.00268884,-0.00273986,0.00060293,-0.00022834,0.0008
 7502,0.00111633,-0.00027289,0.00025612,0.00009740,0.00004243,-0.000038
 56,0.00000733,0.00071783,0.00019998,0.00084760,0.00014380,-0.00005618,
 0.00020039,-0.00012178,0.00030362,-0.00008382,-0.00005546,-0.00011063,
 -0.00030720,0.02110317,-0.09241095,-0.10065085,0.00482498,-0.00868452,
 -0.02683855,-0.01379398,0.09525424,-0.00027058,-0.00119004,-0.00012303
 ,-0.00009294,0.00013121,0.00038845,0.00003242,0.00005251,-0.00003056,-
 0.00005484,0.00076881,0.00039361,0.00550504,-0.00290106,-0.01481112,0.
 00102851,0.00190381,0.00094735,0.00013049,-0.00021375,-0.00040645,-0.0
 0005283,-0.00003227,0.00007026,-0.00009413,-0.00008755,0.00006899,-0.0
 0146706,-0.00058416,0.00024656,-0.00008330,0.00019821,0.00032276,0.000
 04007,-0.00000983,0.00083458,0.00010159,0.00008524,0.00001818,0.041632
 72,-0.09256165,-0.27038744,-0.00135291,0.00098444,0.00434211,-0.044686
 76,0.09934903,0.29309564,0.00073908,-0.00261715,0.00121137,-0.00048199
 ,0.00079222,-0.00038674,-0.00068470,-0.00047488,-0.00079421,0.00018021
 ,-0.00007052,-0.00006425,-0.01237631,-0.00218303,-0.00264636,-0.000622
 97,0.00012893,0.00147502,0.00022146,-0.00001662,-0.00058825,-0.0000923
 8,0.00025451,0.00002761,-0.00101336,-0.00033662,0.00036550,-0.00021910
 ,0.00004588,0.00010222,0.00063408,0.00012766,-0.00032179,0.00002517,-0
 .00016713,-0.00025819,0.00001635,0.00011069,0.00003808,-0.14621531,0.0
 1116880,-0.05931870,-0.01310783,0.00001653,-0.01049173,0.00364897,0.00
 084121,0.00046274,0.47423929,-0.00150827,0.00199607,-0.00137300,0.0007
 2826,-0.00030301,0.00024021,-0.00098483,-0.00108795,0.00127325,-0.0001
 2917,-0.00025209,-0.00029123,-0.01717498,-0.00426338,-0.00938834,-0.00
 024085,-0.00062875,0.00070657,-0.00028586,-0.00001304,-0.00043580,0.00
 019569,0.00003317,0.00023792,-0.00076313,0.00073783,-0.00014100,-0.001
 24578,-0.00216102,0.00168403,-0.00088476,0.00079501,-0.00052377,0.0000
 7141,-0.00002022,0.00005715,-0.00034087,0.00034377,0.00003971,0.010251
 42,-0.07863436,-0.00285996,0.02741724,0.00245312,0.01772141,-0.0120876
 5,0.00091738,-0.00776342,-0.05487587,0.55678291,0.00116440,-0.00184274
 ,0.00050362,-0.00016406,0.00041025,-0.00002679,0.00017120,0.00041695,0
 .00002077,-0.00000988,0.00020068,-0.00007638,0.02085655,0.00069772,0.0
 0965371,0.00050744,0.00048648,0.00423993,-0.00038059,-0.00034995,-0.00
 100435,0.00040697,-0.00014031,-0.00005012,0.00037454,0.00116132,-0.001
 03853,0.00218053,0.00268037,-0.00313656,0.00129965,0.00011293,0.001443
 47,0.00009072,0.00023166,0.00028530,0.00003094,-0.00001298,-0.00005410
 ,-0.05774109,-0.00207512,-0.11961517,-0.00356312,-0.00002180,-0.002069
 74,-0.02917039,0.00035923,-0.01741909,0.00749082,0.02720141,0.55772449
 ,-0.00090026,0.00025966,-0.00029827,0.00038073,-0.00024396,0.00018944,
 -0.00075850,-0.00130027,0.00073689,-0.00015532,-0.00015744,-0.00015205
 ,0.00079830,0.00022734,0.00015093,-0.00023695,-0.00003146,-0.00013853,
 -0.00001526,-0.00001901,0.00007833,0.00016337,-0.00006871,-0.00009300,
 -0.00001141,0.00012179,0.00011562,-0.00012358,-0.00018027,-0.00001196,
 -0.00005033,-0.00017542,0.00004051,0.00002384,0.00007330,-0.00000689,0
 .00022569,-0.00013037,0.00003659,-0.01284357,0.02777168,-0.00198973,-0
 .00445353,-0.00138015,-0.00296958,0.00141681,-0.00054781,0.00040316,-0
 .10271619,0.10057163,-0.01086841,0.10822942,-0.00073648,-0.00164310,0.
 00111491,-0.00048773,0.00023962,-0.00031276,-0.00153971,-0.00062389,-0
 .00052064,0.00010171,0.00005326,0.00002423,0.00107803,-0.00005189,0.00
 040570,0.00023256,0.00014325,-0.00011540,0.00007453,0.00003563,0.00005
 206,-0.00014511,0.00004041,-0.00006457,0.00012537,-0.00022399,0.000035
 85,0.00024203,0.00015431,-0.00009384,0.00009062,-0.00004991,0.00006262
 ,-0.00000838,-0.00002698,0.00000775,0.00001179,0.00004972,-0.00001104,
 -0.00106746,0.00495200,-0.00056601,-0.00193223,0.00061972,-0.00044050,
 0.00039411,0.00055219,0.00039642,0.09948551,-0.24405887,0.01065086,-0.
 10074788,0.27414004,0.00024459,0.00030344,0.00034003,0.00009295,-0.000
 10326,-0.00002223,0.00048917,0.00034915,0.00030260,-0.00023654,-0.0001
 2211,-0.00018662,0.00002151,0.00004574,0.00020803,0.00005039,-0.000088
 37,-0.00006987,0.00002119,0.00007529,0.00007270,-0.00014799,0.00002528
 ,-0.00010538,-0.00004152,-0.00024081,0.00005523,-0.00006283,0.00004225
 ,0.00002818,-0.00001360,-0.00010727,0.00000790,-0.00000599,0.00002807,
 -0.00000942,0.00007288,-0.00006456,-0.00000687,-0.00842866,0.01463607,
 -0.00157283,-0.00244674,0.00009660,-0.00091867,0.00054924,0.00046447,0
 .00070509,-0.00714233,0.00850120,-0.05541021,0.00746098,-0.02418532,0.
 05791973,-0.00009347,0.00015543,-0.00014305,0.00008092,-0.00007729,0.0
 0004281,-0.00000156,-0.00005967,0.00017793,-0.00005480,0.00012038,-0.0
 0003474,0.00106911,0.00030261,0.00037903,-0.00073316,-0.00082297,0.000
 36724,-0.00002709,0.00009328,0.00006460,-0.00023264,0.00010332,0.00007
 021,-0.00140125,-0.00077979,0.00057417,-0.00004078,0.00003723,0.000017
 06,-0.00008011,0.00000470,0.00018689,0.00011632,0.00010732,0.00015753,
 0.00002626,0.00000142,-0.00003611,0.00427510,-0.01352055,-0.02885749,0
 .00137345,0.00016625,0.00089683,-0.00544539,-0.00043245,-0.00264768,-0
 .05574600,0.01589818,0.01975165,0.00090698,0.00818167,0.01280709,0.061
 50035,-0.00016042,-0.00020433,0.00003516,-0.00011050,0.00002372,-0.000
 00395,0.00014491,-0.00004550,-0.00027976,0.00017161,0.00010089,0.00015
 157,0.00005196,0.00014553,-0.00015172,-0.00041029,0.00026756,-0.000827
 56,0.00022285,0.00001138,0.00029617,0.00003127,0.00001817,0.00004077,-
 0.00063398,-0.00036441,0.00058908,-0.00016404,0.00001535,0.00012941,-0
 .00003043,-0.00002280,-0.00002122,0.00004445,0.00001375,0.00006138,0.0
 0002404,0.00000615,-0.00001653,0.00124441,-0.00073065,-0.00119011,-0.0
 0040106,0.00074384,0.00056156,-0.00068397,0.00091183,0.00049119,0.0141
 2425,-0.10391349,-0.10166617,0.00302610,-0.01113498,-0.02569856,-0.009
 75777,0.10456191,-0.00021972,-0.00006840,0.00005521,-0.00003085,-0.000
 04413,-0.00000856,-0.00003018,-0.00007433,-0.00008811,0.00002806,0.000
 08568,0.00004413,-0.00045976,-0.00021165,-0.00039098,0.00087838,0.0005
 6361,-0.00148483,0.00036602,0.00014348,0.00059459,-0.00029006,0.000052
 97,-0.00005467,0.00119178,-0.00012075,0.00078299,-0.00024609,-0.000165
 71,0.00008482,-0.00012415,0.00000006,0.00000837,0.00002672,0.00006320,
 0.00013413,0.00002721,0.00000384,-0.00005057,0.00047581,-0.00691829,-0
 .01305208,0.00015558,0.00019618,0.00050247,-0.00175639,0.00044547,-0.0
 0022974,0.02042307,-0.09743328,-0.24254165,-0.00084060,-0.00051990,0.0
 0393386,-0.03132337,0.09964672,0.27401485,-0.00077743,0.00169110,-0.00
 001802,-0.00001415,-0.00033564,-0.00001717,0.00005893,0.00016324,-0.00
 006557,0.00001943,-0.00002309,0.00005914,-0.00918998,-0.00108545,-0.00
 457332,0.00026274,-0.00080902,-0.00117027,-0.00030379,0.00003150,0.000
 07198,0.00017121,-0.00006239,0.00006900,0.00001035,0.00030162,-0.00035
 594,-0.00045831,-0.00171834,0.00221999,-0.00078091,0.00008811,-0.00061
 240,0.00000183,-0.00001534,-0.00002700,0.00000757,0.00001468,0.0000269
 1,-0.03475762,-0.03112749,0.02441189,0.00238759,-0.00000783,0.00221365
 ,0.00186749,-0.00054284,0.00140456,-0.12914854,-0.06447409,0.05814946,
 0.00834590,-0.00420183,-0.00249835,-0.00650811,-0.00785789,0.01262012,
 0.59114352,0.00025853,-0.00053054,0.00078183,-0.00047549,0.00013565,-0
 .00026549,-0.00004437,0.00041164,-0.00080817,0.00014394,0.00011661,0.0
 0013098,-0.00124448,0.00078540,-0.00125964,0.00027906,-0.00026708,-0.0
 0039167,-0.00008287,0.00002117,0.00006807,-0.00007432,-0.00003093,-0.0
 0001397,0.00013528,-0.00005550,-0.00016908,0.00003155,-0.00033559,0.00
 075149,-0.00017944,-0.00001406,-0.00014010,0.00000990,-0.00003544,0.00
 004210,-0.00004649,0.00000054,-0.00001253,-0.01479231,-0.00635636,0.00
 588865,-0.00048481,0.00056630,-0.00036828,0.00158616,-0.00012123,0.000
 73739,-0.04176093,-0.12176861,0.07134546,-0.02654770,-0.02320199,0.026
 92436,-0.00054156,0.00849879,0.00409198,0.16505691,0.16525270,-0.00048
 064,0.00072111,-0.00049375,0.00020908,-0.00014008,0.00011921,0.0000524
 7,-0.00028885,0.00024288,0.00004400,-0.00003325,0.00000341,-0.00478856
 ,-0.00133833,-0.00062764,-0.00014277,0.00003983,-0.00178325,0.00031415
 ,0.00011747,0.00053439,-0.00020655,0.00006590,0.00000840,0.00014450,-0
 .00050139,0.00069572,-0.00045981,-0.00042031,0.00047734,-0.00023100,0.
 00003577,-0.00023507,0.00004492,0.00001807,-0.00000531,0.00000887,0.00
 003592,-0.00004029,-0.00200763,-0.00521630,0.01066434,-0.00002239,-0.0
 0062260,0.00044926,0.00085473,-0.00023760,0.00164886,0.02004834,0.0547
 8572,-0.13796216,0.00837466,0.01347179,-0.00556220,0.02638657,0.028012
 48,-0.02247670,0.11926706,-0.08626391,0.27153209,-0.00001745,0.0000390
 5,-0.00009115,0.00007236,-0.00003527,0.00002390,0.00001774,-0.00010194
 ,0.00009140,-0.00001035,-0.00005486,-0.00000911,-0.00019878,0.00007139
 ,-0.00068530,0.00004076,0.00006324,-0.00026244,0.00008156,0.00002818,0
 .00006891,-0.00007713,0.00002020,0.00001149,-0.00001036,-0.00010766,0.
 00015702,-0.00012360,-0.00007260,0.00004649,-0.00001615,0.00002320,-0.
 00005936,-0.00001240,-0.00002340,-0.00001562,-0.00003322,0.00001400,-0
 .00000132,-0.00188463,-0.00231228,0.00329195,0.00034366,-0.00006904,0.
 00014868,0.00026067,0.00006495,0.00006172,-0.01727994,-0.00013770,-0.0
 1057732,0.00177385,0.00084887,-0.00078544,0.00101588,0.00112450,-0.000
 87156,-0.42233771,-0.08122657,-0.16740998,0.43839525,-0.00002817,0.000
 37934,-0.00015005,0.00006311,0.00001338,0.00003048,-0.00003988,-0.0000
 4598,0.00010936,-0.00004258,-0.00002402,-0.00003511,-0.00114680,0.0005
 6797,-0.00049013,-0.00002540,0.00000743,0.00000831,-0.00000937,0.00000
 723,0.00002515,0.00001393,0.00000798,0.00004230,0.00000276,0.00003849,
 0.00002221,-0.00017527,-0.00019294,0.00014663,-0.00007716,0.00003463,-
 0.00007399,-0.00001333,-0.00001122,-0.00001796,-0.00000960,0.00000509,
 0.00001788,-0.00102793,-0.00350473,0.00282535,-0.00010606,0.00032131,0
 .00001434,0.00015818,-0.00013336,0.00024546,-0.02459345,-0.00695449,-0
 .00984625,-0.00052105,0.00003547,-0.00088165,0.00082024,0.00109728,0.0
 0026323,-0.05508592,-0.02307147,-0.00224146,0.08184375,0.03142262,0.00
 000993,-0.00009094,-0.00001071,0.00002288,0.00001029,0.00000906,-0.000
 01137,-0.00002009,0.00005225,-0.00002676,0.00001008,-0.00001559,0.0014
 0967,0.00036227,0.00110257,-0.00015327,0.00001654,0.00033279,-0.000024
 17,0.00000591,0.00000453,0.00002593,-0.00000557,0.00001119,0.00001056,
 0.00004554,0.00000136,0.00021527,0.00024394,-0.00025671,0.00011096,-0.
 00001034,0.00010466,-0.00000307,0.00001431,-0.00000445,0.00001076,-0.0
 0000485,-0.00000163,0.00130931,0.00207807,-0.00382609,0.00009289,-0.00
 007896,-0.00022799,-0.00000329,0.00029828,0.00032499,0.03036774,0.0077
 6121,0.00653354,-0.00021810,0.00060778,0.00029095,0.00116282,-0.000159
 91,0.00022245,-0.21117571,-0.02106947,-0.11718952,0.17686700,0.0099859
 1,0.11254234\\0.00000163,-0.00000036,-0.00000249,0.00000213,-0.0000016
 0,-0.00000341,0.00000168,-0.00000047,-0.00000253,0.00000201,0.00000148
 ,-0.00000300,0.00000019,-0.00000057,-0.00000038,-0.00000037,-0.0000029
 0,0.00000039,0.00000017,-0.00000430,-0.00000060,-0.00000135,-0.0000030
 6,0.00000182,-0.00000022,-0.00000313,0.00000020,0.00000015,-0.00000040
 ,-0.00000044,0.00000078,-0.00000182,-0.00000131,0.00000066,0.00000129,
 -0.00000090,-0.00000076,-0.00000062,0.00000114,-0.00000043,0.00000151,
 0.00000085,-0.00000153,0.00000116,0.00000241,-0.00000011,0.00000303,0.
 00000038,-0.00000050,0.00000170,0.00000103,0.00000024,0.00000179,-0.00
 000022,-0.00000121,-0.00000003,0.00000187,-0.00000145,0.00000354,0.000
 00249,-0.00000172,0.00000375,0.00000271\\\@


 IT WAS A GAME, A VERY INTERESTING GAME ONE COULD
 PLAY.  WHENEVER ONE SOLVED ONE OF THE LITTLE PROBLEMS,
 ONE COULD WRITE A PAPER ABOUT IT.  IT WAS VERY EASY IN
 THOSE DAYS FOR ANY SECOND-RATE PHYSICIST TO DO
 FIRST-RATE WORK.  THERE HAS NOT BEEN SUCH A GLORIOUS
 TIME SINCE.  IT IS VERY DIFFICULT NOW FOR A FIRST-RATE
 PHYSICIST TO DO SECOND-RATE WORK.
     P.A.M. DIRAC, ON THE EARLY DAYS OF QUANTUM MECHANICS
                   DIRECTIONS IN PHYSICS, 1978, P. 7
 Job cpu time:       0 days  0 hours 37 minutes 45.9 seconds.
 File lengths (MBytes):  RWF=    200 Int=      0 D2E=      0 Chk=      6 Scr=      2
 Normal termination of Gaussian 09 at Fri Aug 19 02:57:00 2022.
