 Entering Gaussian System, Link 0=g09
 Initial command:
 /home/software/gaussian//09.d01/l1.exe "/home/tntech.edu/jbthorn42/tmp/tmp.PF27dUcAEG/Gau-2842794.inp" -scrdir="/home/tntech.edu/jbthorn42/tmp/tmp.PF27dUcAEG/"
 Default is to use a total of  16 processors:
                               16 via shared-memory
                                1 via Linda
 Entering Link 1 = /home/software/gaussian//09.d01/l1.exe PID=   2842795.
  
 Copyright (c) 1988,1990,1992,1993,1995,1998,2003,2009,2013,
            Gaussian, Inc.  All Rights Reserved.
  
 This is part of the Gaussian(R) 09 program.  It is based on
 the Gaussian(R) 03 system (copyright 2003, Gaussian, Inc.),
 the Gaussian(R) 98 system (copyright 1998, Gaussian, Inc.),
 the Gaussian(R) 94 system (copyright 1995, Gaussian, Inc.),
 the Gaussian 92(TM) system (copyright 1992, Gaussian, Inc.),
 the Gaussian 90(TM) system (copyright 1990, Gaussian, Inc.),
 the Gaussian 88(TM) system (copyright 1988, Gaussian, Inc.),
 the Gaussian 86(TM) system (copyright 1986, Carnegie Mellon
 University), and the Gaussian 82(TM) system (copyright 1983,
 Carnegie Mellon University). Gaussian is a federally registered
 trademark of Gaussian, Inc.
  
 This software contains proprietary and confidential information,
 including trade secrets, belonging to Gaussian, Inc.
  
 This software is provided under written license and may be
 used, copied, transmitted, or stored only in accord with that
 written license.
  
 The following legend is applicable only to US Government
 contracts under FAR:
  
                    RESTRICTED RIGHTS LEGEND
  
 Use, reproduction and disclosure by the US Government is
 subject to restrictions as set forth in subparagraphs (a)
 and (c) of the Commercial Computer Software - Restricted
 Rights clause in FAR 52.227-19.
  
 Gaussian, Inc.
 340 Quinnipiac St., Bldg. 40, Wallingford CT 06492
  
  
 ---------------------------------------------------------------
 Warning -- This program may not be used in any manner that
 competes with the business of Gaussian, Inc. or will provide
 assistance to any competitor of Gaussian, Inc.  The licensee
 of this program is prohibited from giving any competitor of
 Gaussian, Inc. access to this program.  By using this program,
 the user acknowledges that Gaussian, Inc. is engaged in the
 business of creating and licensing software in the field of
 computational chemistry and represents and warrants to the
 licensee that it is not a competitor of Gaussian, Inc. and that
 it will not use this program in any manner prohibited above.
 ---------------------------------------------------------------
  

 Cite this work as:
 Gaussian 09, Revision D.01,
 M. J. Frisch, G. W. Trucks, H. B. Schlegel, G. E. Scuseria, 
 M. A. Robb, J. R. Cheeseman, G. Scalmani, V. Barone, B. Mennucci, 
 G. A. Petersson, H. Nakatsuji, M. Caricato, X. Li, H. P. Hratchian, 
 A. F. Izmaylov, J. Bloino, G. Zheng, J. L. Sonnenberg, M. Hada, 
 M. Ehara, K. Toyota, R. Fukuda, J. Hasegawa, M. Ishida, T. Nakajima, 
 Y. Honda, O. Kitao, H. Nakai, T. Vreven, J. A. Montgomery, Jr., 
 J. E. Peralta, F. Ogliaro, M. Bearpark, J. J. Heyd, E. Brothers, 
 K. N. Kudin, V. N. Staroverov, T. Keith, R. Kobayashi, J. Normand, 
 K. Raghavachari, A. Rendell, J. C. Burant, S. S. Iyengar, J. Tomasi, 
 M. Cossi, N. Rega, J. M. Millam, M. Klene, J. E. Knox, J. B. Cross, 
 V. Bakken, C. Adamo, J. Jaramillo, R. Gomperts, R. E. Stratmann, 
 O. Yazyev, A. J. Austin, R. Cammi, C. Pomelli, J. W. Ochterski, 
 R. L. Martin, K. Morokuma, V. G. Zakrzewski, G. A. Voth, 
 P. Salvador, J. J. Dannenberg, S. Dapprich, A. D. Daniels, 
 O. Farkas, J. B. Foresman, J. V. Ortiz, J. Cioslowski, 
 and D. J. Fox, Gaussian, Inc., Wallingford CT, 2013.
 
 ******************************************
 Gaussian 09:  ES64L-G09RevD.01 24-Apr-2013
                23-Sep-2022 
 ******************************************
 %chk=chomondoc.chk
 %nprocshared=16
 Will use up to   16 processors via shared memory.
 %mem=275MW
 %rwf=chomondoc.rwf
 ----------------------------------------------------------------------
 #p opt=restart freq=(restart,raman,savenormalmodes) b3lyp/6-311+g(d,p)
  nosymm int=(grid=ultrafine) guess=restart scf=(xqc,maxconventionalcyc
 les=2048,tight)
 ----------------------------------------------------------------------
 1/14=-1,18=20,19=15,26=4,35=1/3;
 2/9=110,12=2,15=1,17=6,18=5,40=1/2;
 3/5=4,6=6,7=111,11=2,16=1,25=1,30=1,71=1,74=-5,75=-5/1,2,3;
 4/5=7/1;
 5/5=2,8=3,13=1,32=2,38=6,85=2048/2,8;
 6/7=2,8=2,9=2,10=2,28=1/1;
 7/30=1,92=1/1,2,3,16;
 1/14=-1,18=20,19=15,26=4/3(2);
 2/9=110,15=1/2;
 99//99;
 2/9=110,15=1/2;
 3/5=4,6=6,7=111,11=2,16=1,25=1,30=1,71=1,74=-5,75=-5/1,2,3;
 4/5=5,16=3,69=1/1;
 5/5=2,8=3,13=1,32=2,38=5,85=2048/2,8;
 7/30=1,92=1/1,2,3,16;
 1/14=-1,18=20,19=15,26=4/3(-5);
 2/9=110,15=1/2;
 6/7=2,8=2,9=2,10=2,19=2,28=1/1;
 99/9=1/99;
 Leave Link    1 at Fri Sep 23 20:53:59 2022, MaxMem=   288358400 cpu:         3.1
 (Enter /home/software/gaussian//09.d01/l103.exe)

 GradGradGradGradGradGradGradGradGradGradGradGradGradGradGradGradGradGrad
 Berny optimization.
 Restoring state from the checkpoint file "chomondoc.chk".
 ONIOM results not found on unit 2.
 Title:  Cho:Mon:Doc
 Route:  #p opt freq=(raman,savenormalmodes) b3lyp/6-311+g(d,p) nosymm int=(grid=
 ultrafine) guess=read geom=allcheck scf=(xqc,maxconventionalcycles=2048,tight)
 FncErr=1.00D-07 GrdErr=1.00D-06
 FormGI is forming the generalized inverse of G from B-inverse, IUseBI=4.
 GSVD:  received Info=                   1 from GESDD.
 Internal  Forces:  Max     0.000000013 RMS     0.000000001
 Search for a local minimum.
 Step number   1 out of a maximum of 1061
 All quantities printed in internal units (Hartrees-Bohrs-Radians)
 RMS Force = .13134D-08 SwitMx=.10000D-02 MixMth= 2
 Mixed Optimization -- En-DIIS/RFO-DIIS
 Second derivative matrix not updated -- first step.
 ITU=  0
     Eigenvalues ---    0.00230   0.00230   0.00230   0.00230   0.00230
     Eigenvalues ---    0.00230   0.00230   0.00230   0.00230   0.00231
     Eigenvalues ---    0.00233   0.00236   0.00247   0.00255   0.00261
     Eigenvalues ---    0.00263   0.00263   0.00299   0.00305   0.00307
     Eigenvalues ---    0.00308   0.00323   0.00324   0.00325   0.00329
     Eigenvalues ---    0.00340   0.00347   0.00350   0.00351   0.00361
     Eigenvalues ---    0.00393   0.00402   0.00420   0.00467   0.00476
     Eigenvalues ---    0.00502   0.00543   0.00587   0.00645   0.00788
     Eigenvalues ---    0.00818   0.00951   0.00978   0.00978   0.01024
     Eigenvalues ---    0.01040   0.01056   0.01130   0.01151   0.01227
     Eigenvalues ---    0.01238   0.01252   0.01362   0.01464   0.01477
     Eigenvalues ---    0.01583   0.01719   0.01773   0.01809   0.01812
     Eigenvalues ---    0.01832   0.01889   0.01960   0.01960   0.02023
     Eigenvalues ---    0.02028   0.02049   0.02052   0.02062   0.02064
     Eigenvalues ---    0.02074   0.02082   0.02096   0.02097   0.02112
     Eigenvalues ---    0.02117   0.02117   0.02127   0.02129   0.02139
     Eigenvalues ---    0.02158   0.02168   0.02180   0.02204   0.02212
     Eigenvalues ---    0.02215   0.02218   0.02222   0.02230   0.02242
     Eigenvalues ---    0.02305   0.02359   0.02386   0.02415   0.02536
     Eigenvalues ---    0.02540   0.02802   0.02859   0.02873   0.02994
     Eigenvalues ---    0.03002   0.03064   0.03184   0.03194   0.03232
     Eigenvalues ---    0.03243   0.03296   0.03316   0.03347   0.03397
     Eigenvalues ---    0.03411   0.03425   0.03433   0.03436   0.03468
     Eigenvalues ---    0.03485   0.03502   0.03636   0.03680   0.03837
     Eigenvalues ---    0.03895   0.03951   0.04004   0.04051   0.04100
     Eigenvalues ---    0.04199   0.04240   0.04271   0.04364   0.04417
     Eigenvalues ---    0.04550   0.04563   0.04577   0.04616   0.04638
     Eigenvalues ---    0.04691   0.04693   0.04694   0.04730   0.04740
     Eigenvalues ---    0.04757   0.04763   0.04766   0.04772   0.04787
     Eigenvalues ---    0.04789   0.04804   0.04846   0.04885   0.04932
     Eigenvalues ---    0.04941   0.04957   0.04974   0.05154   0.05206
     Eigenvalues ---    0.05243   0.05261   0.05266   0.05305   0.05311
     Eigenvalues ---    0.05347   0.05371   0.05381   0.05394   0.05415
     Eigenvalues ---    0.05442   0.05449   0.05466   0.05478   0.05480
     Eigenvalues ---    0.05504   0.05516   0.05566   0.05597   0.05657
     Eigenvalues ---    0.05669   0.05683   0.05783   0.05784   0.05828
     Eigenvalues ---    0.05900   0.05959   0.06002   0.06022   0.06049
     Eigenvalues ---    0.06299   0.06438   0.06695   0.06889   0.06963
     Eigenvalues ---    0.07125   0.07178   0.07605   0.07631   0.07966
     Eigenvalues ---    0.08160   0.08414   0.08433   0.08441   0.08446
     Eigenvalues ---    0.08518   0.08570   0.08583   0.08584   0.08631
     Eigenvalues ---    0.08741   0.08762   0.08820   0.09007   0.09229
     Eigenvalues ---    0.09260   0.09379   0.09418   0.09505   0.09761
     Eigenvalues ---    0.09903   0.10055   0.10182   0.10357   0.10526
     Eigenvalues ---    0.10626   0.10730   0.10792   0.10948   0.11284
     Eigenvalues ---    0.11327   0.11612   0.11680   0.12027   0.12113
     Eigenvalues ---    0.12267   0.12281   0.12285   0.12288   0.12348
     Eigenvalues ---    0.12383   0.12404   0.12454   0.12507   0.12522
     Eigenvalues ---    0.12590   0.12674   0.12811   0.12873   0.12933
     Eigenvalues ---    0.13500   0.13623   0.13635   0.13848   0.14091
     Eigenvalues ---    0.14217   0.14348   0.14797   0.15170   0.15435
     Eigenvalues ---    0.15859   0.15997   0.15998   0.15999   0.16000
     Eigenvalues ---    0.16000   0.16000   0.16000   0.16000   0.16000
     Eigenvalues ---    0.16000   0.16000   0.16000   0.16000   0.16000
     Eigenvalues ---    0.16000   0.16000   0.16000   0.16000   0.16000
     Eigenvalues ---    0.16000   0.16000   0.16000   0.16000   0.16000
     Eigenvalues ---    0.16000   0.16000   0.16000   0.16000   0.16000
     Eigenvalues ---    0.16000   0.16000   0.16000   0.16000   0.16000
     Eigenvalues ---    0.16000   0.16000   0.16000   0.16000   0.16000
     Eigenvalues ---    0.16000   0.16000   0.16340   0.16473   0.16583
     Eigenvalues ---    0.16786   0.16929   0.16940   0.17251   0.17263
     Eigenvalues ---    0.17308   0.17680   0.17868   0.17924   0.18160
     Eigenvalues ---    0.19198   0.19489   0.20231   0.21002   0.21278
     Eigenvalues ---    0.21600   0.21801   0.21866   0.21887   0.21898
     Eigenvalues ---    0.21900   0.21902   0.21913   0.21917   0.21924
     Eigenvalues ---    0.21934   0.21934   0.21937   0.21947   0.21997
     Eigenvalues ---    0.21999   0.21999   0.22000   0.22000   0.22071
     Eigenvalues ---    0.22115   0.22322   0.22479   0.22605   0.22747
     Eigenvalues ---    0.23350   0.23448   0.23454   0.23476   0.23523
     Eigenvalues ---    0.24440   0.24446   0.24694   0.24791   0.24943
     Eigenvalues ---    0.24982   0.24988   0.24995   0.25000   0.25000
     Eigenvalues ---    0.25000   0.25000   0.25000   0.25000   0.25000
     Eigenvalues ---    0.25000   0.25000   0.25000   0.27485   0.27802
     Eigenvalues ---    0.28208   0.28222   0.28238   0.28261   0.28294
     Eigenvalues ---    0.28348   0.28516   0.28680   0.28690   0.28891
     Eigenvalues ---    0.28979   0.28995   0.29106   0.29109   0.29120
     Eigenvalues ---    0.29150   0.29223   0.29267   0.29289   0.29297
     Eigenvalues ---    0.29353   0.29369   0.29448   0.29593   0.29636
     Eigenvalues ---    0.29782   0.30027   0.30120   0.30201   0.30370
     Eigenvalues ---    0.30491   0.30673   0.30724   0.30754   0.31294
     Eigenvalues ---    0.31319   0.31603   0.31897   0.32403   0.32566
     Eigenvalues ---    0.33659   0.33746   0.33817   0.33842   0.33871
     Eigenvalues ---    0.33896   0.33944   0.33961   0.33989   0.34012
     Eigenvalues ---    0.34014   0.34033   0.34035   0.34066   0.34082
     Eigenvalues ---    0.34104   0.34115   0.34149   0.34170   0.34215
     Eigenvalues ---    0.34219   0.34252   0.34263   0.34286   0.34288
     Eigenvalues ---    0.34288   0.34290   0.34291   0.34294   0.34335
     Eigenvalues ---    0.34351   0.34396   0.34400   0.34401   0.34403
     Eigenvalues ---    0.34405   0.34407   0.34416   0.34422   0.34443
     Eigenvalues ---    0.34449   0.34483   0.34503   0.34547   0.34575
     Eigenvalues ---    0.34576   0.34615   0.34631   0.34634   0.34661
     Eigenvalues ---    0.34679   0.34725   0.34726   0.34759   0.34786
     Eigenvalues ---    0.34795   0.34814   0.34817   0.34818   0.34854
     Eigenvalues ---    0.34859   0.34863   0.34874   0.34924   0.34925
     Eigenvalues ---    0.34939   0.34945   0.34953   0.34967   0.34978
     Eigenvalues ---    0.34979   0.35002   0.35031   0.35073   0.35091
     Eigenvalues ---    0.35177   0.35276   0.35358   0.35363   0.35389
     Eigenvalues ---    0.35404   0.35418   0.35466   0.35474   0.35479
     Eigenvalues ---    0.35504   0.35510   0.35519   0.35544   0.35545
     Eigenvalues ---    0.35642   0.35732   0.35735   0.35782   0.35853
     Eigenvalues ---    0.36330   0.36428   0.36917   0.37471   0.38338
     Eigenvalues ---    0.39246   0.40345   0.40566   0.40986   0.41384
     Eigenvalues ---    0.41622   0.41692   0.41896   0.42190   0.42255
     Eigenvalues ---    0.43214   0.43224   0.44534   0.44994   0.45595
     Eigenvalues ---    0.46036   0.46201   0.46453   0.46771   0.47354
     Eigenvalues ---    0.47415   0.48446   0.49243   0.49802   0.52199
     Eigenvalues ---    0.52560   0.54730   0.55865   0.56023   0.58073
     Eigenvalues ---    0.58335   0.73248   0.76420   0.78909   0.79737
     Eigenvalues ---    0.83163   0.95330   1.01484
 RFO step:  Lambda= 0.00000000D+00 EMin= 2.30000000D-03
 Linear search not attempted -- first point.
 Iteration  1 RMS(Cart)=  0.00000740 RMS(Int)=  0.00000000
 Iteration  2 RMS(Cart)=  0.00000000 RMS(Int)=  0.00000000
 ITry= 1 IFail=0 DXMaxC= 4.91D-05 DCOld= 1.00D+10 DXMaxT= 3.00D-01 DXLimC= 3.00D+00 Rises=F
 Variable       Old X    -DE/DX   Delta X   Delta X   Delta X     New X
                                 (Linear)    (Quad)   (Total)
    R1        2.05973   0.00000   0.00000   0.00000   0.00000   2.05973
    R2        2.06123   0.00000   0.00000   0.00000   0.00000   2.06123
    R3        2.05556   0.00000   0.00000   0.00000   0.00000   2.05556
    R4        2.84333   0.00000   0.00000   0.00000   0.00000   2.84333
    R5        2.84006   0.00000   0.00000   0.00000   0.00000   2.84006
    R6        2.84939   0.00000   0.00000   0.00000   0.00000   2.84939
    R7        2.88509   0.00000   0.00000   0.00000   0.00000   2.88509
    R8        2.06010   0.00000   0.00000   0.00000   0.00000   2.06010
    R9        2.05710   0.00000   0.00000   0.00000   0.00000   2.05710
   R10        2.06047   0.00000   0.00000   0.00000   0.00000   2.06047
   R11        4.05203   0.00000   0.00000   0.00000   0.00000   4.05203
   R12        2.05782   0.00000   0.00000   0.00000   0.00000   2.05782
   R13        2.05774   0.00000   0.00000   0.00000   0.00000   2.05774
   R14        2.05971   0.00000   0.00000   0.00000   0.00000   2.05971
   R15        4.39812   0.00000   0.00000   0.00000   0.00000   4.39812
   R16        2.05625   0.00000   0.00000   0.00000   0.00000   2.05625
   R17        2.05528   0.00000   0.00000   0.00000   0.00000   2.05528
   R18        2.89749   0.00000   0.00000   0.00000   0.00000   2.89749
   R19        2.06624   0.00000   0.00000   0.00000   0.00000   2.06624
   R20        2.07137   0.00000   0.00000   0.00000   0.00000   2.07137
   R21        2.66939   0.00000   0.00000   0.00000   0.00000   2.66939
   R22        1.88741   0.00000   0.00000   0.00000   0.00000   1.88741
   R23        4.38661   0.00000   0.00000   0.00000   0.00000   4.38661
   R24        3.17267   0.00000   0.00000   0.00000   0.00000   3.17267
   R25        2.05672   0.00000   0.00000   0.00000   0.00000   2.05672
   R26        2.06371   0.00000   0.00000   0.00000   0.00000   2.06371
   R27        2.06417   0.00000   0.00000   0.00000   0.00000   2.06417
   R28        2.89777   0.00000   0.00000   0.00000   0.00000   2.89777
   R29        2.91023   0.00000   0.00000   0.00000   0.00000   2.91023
   R30        2.93278   0.00000   0.00000   0.00000   0.00000   2.93278
   R31        2.72591   0.00000   0.00000   0.00000   0.00000   2.72591
   R32        2.05799   0.00000   0.00000   0.00000   0.00000   2.05799
   R33        2.06522   0.00000   0.00000   0.00000   0.00000   2.06522
   R34        2.06968   0.00000   0.00000   0.00000   0.00000   2.06968
   R35        2.65198   0.00000   0.00000   0.00000   0.00000   2.65198
   R36        2.67555   0.00000   0.00000   0.00000   0.00000   2.67555
   R37        2.04311   0.00000   0.00000   0.00000   0.00000   2.04311
   R38        2.62857   0.00000   0.00000   0.00000   0.00000   2.62857
   R39        2.04925   0.00000   0.00000   0.00000   0.00000   2.04925
   R40        2.62662   0.00000   0.00000   0.00000   0.00000   2.62662
   R41        2.04904   0.00000   0.00000   0.00000   0.00000   2.04904
   R42        2.62442   0.00000   0.00000   0.00000   0.00000   2.62442
   R43        2.05230   0.00000   0.00000   0.00000   0.00000   2.05230
   R44        2.65191   0.00000   0.00000   0.00000   0.00000   2.65191
   R45        2.87725   0.00000   0.00000   0.00000   0.00000   2.87725
   R46        2.07218   0.00000   0.00000   0.00000   0.00000   2.07218
   R47        2.05098   0.00000   0.00000   0.00000   0.00000   2.05098
   R48        2.91500   0.00000   0.00000   0.00000   0.00000   2.91500
   R49        2.06742   0.00000   0.00000   0.00000   0.00000   2.06742
   R50        2.06961   0.00000   0.00000   0.00000   0.00000   2.06961
   R51        2.91621   0.00000   0.00000   0.00000   0.00000   2.91621
   R52        2.06490   0.00000   0.00000   0.00000   0.00000   2.06490
   R53        2.86638   0.00000   0.00000   0.00000   0.00000   2.86638
   R54        3.51620   0.00000   0.00000   0.00000   0.00000   3.51620
   R55        2.63784   0.00000   0.00000   0.00000   0.00000   2.63784
   R56        2.64363   0.00000   0.00000   0.00000   0.00000   2.64363
   R57        2.04840   0.00000   0.00000   0.00000   0.00000   2.04840
   R58        2.64244   0.00000   0.00000   0.00000   0.00000   2.64244
   R59        2.04864   0.00000   0.00000   0.00000   0.00000   2.04864
   R60        2.61961   0.00000   0.00000   0.00000   0.00000   2.61961
   R61        2.04799   0.00000   0.00000   0.00000   0.00000   2.04799
   R62        2.66307   0.00000   0.00000   0.00000   0.00000   2.66307
   R63        2.64940   0.00000   0.00000   0.00000   0.00000   2.64940
   R64        2.76869   0.00000   0.00000   0.00000   0.00000   2.76869
   R65        2.05047   0.00000   0.00000   0.00000   0.00000   2.05047
   R66        2.05388   0.00000   0.00000   0.00000   0.00000   2.05388
   R67        2.54371   0.00000   0.00000   0.00000   0.00000   2.54371
   R68        2.05001   0.00000   0.00000   0.00000   0.00000   2.05001
   R69        2.76717   0.00000   0.00000   0.00000   0.00000   2.76717
   R70        2.50934   0.00000   0.00000   0.00000   0.00000   2.50934
   R71        2.70128   0.00000   0.00000   0.00000   0.00000   2.70128
   R72        2.56777   0.00000   0.00000   0.00000   0.00000   2.56777
   R73        2.69818   0.00000   0.00000   0.00000   0.00000   2.69818
   R74        2.68211   0.00000   0.00000   0.00000   0.00000   2.68211
   R75        2.67374   0.00000   0.00000   0.00000   0.00000   2.67374
   R76        2.67965   0.00000   0.00000   0.00000   0.00000   2.67965
   R77        2.05024   0.00000   0.00000   0.00000   0.00000   2.05024
   R78        2.59835   0.00000   0.00000   0.00000   0.00000   2.59835
   R79        2.04503   0.00000   0.00000   0.00000   0.00000   2.04503
   R80        2.66953   0.00000   0.00000   0.00000   0.00000   2.66953
   R81        2.59241   0.00000   0.00000   0.00000   0.00000   2.59241
   R82        3.32396   0.00000   0.00000   0.00000   0.00000   3.32396
   R83        2.04423   0.00000   0.00000   0.00000   0.00000   2.04423
   R84        2.05089   0.00000   0.00000   0.00000   0.00000   2.05089
   R85        2.58302   0.00000   0.00000   0.00000   0.00000   2.58302
   R86        2.04497   0.00000   0.00000   0.00000   0.00000   2.04497
   R87        3.47297   0.00000   0.00000   0.00000   0.00000   3.47297
   R88        2.06844   0.00000   0.00000   0.00000   0.00000   2.06844
   R89        2.06023   0.00000   0.00000   0.00000   0.00000   2.06023
   R90        2.88782   0.00000   0.00000   0.00000   0.00000   2.88782
   R91        2.85341   0.00000   0.00000   0.00000   0.00000   2.85341
   R92        2.85168   0.00000   0.00000   0.00000   0.00000   2.85168
   R93        2.89692   0.00000   0.00000   0.00000   0.00000   2.89692
   R94        2.04912   0.00000   0.00000   0.00000   0.00000   2.04912
   R95        2.04855   0.00000   0.00000   0.00000   0.00000   2.04855
   R96        2.85866   0.00000   0.00000   0.00000   0.00000   2.85866
   R97        2.04800   0.00000   0.00000   0.00000   0.00000   2.04800
   R98        2.04645   0.00000   0.00000   0.00000   0.00000   2.04645
   R99        2.07396   0.00000   0.00000   0.00000   0.00000   2.07396
   R100       2.06199   0.00000   0.00000   0.00000   0.00000   2.06199
   R101       2.90647   0.00000   0.00000   0.00000   0.00000   2.90647
   R102       2.41773   0.00000   0.00000   0.00000   0.00000   2.41773
   R103       2.36254   0.00000   0.00000   0.00000   0.00000   2.36254
   R104       4.55423   0.00000   0.00000   0.00000   0.00000   4.55423
   R105       1.82073   0.00000   0.00000   0.00000   0.00000   1.82073
   R106       2.06656   0.00000   0.00000   0.00000   0.00000   2.06656
   R107       2.06837   0.00000   0.00000   0.00000   0.00000   2.06837
   R108       2.06841   0.00000   0.00000   0.00000   0.00000   2.06841
   R109       2.89405   0.00000   0.00000   0.00000   0.00000   2.89405
   R110       2.07307   0.00000   0.00000   0.00000   0.00000   2.07307
   R111       2.07310   0.00000   0.00000   0.00000   0.00000   2.07310
   R112       2.89753   0.00000   0.00000   0.00000   0.00000   2.89753
   R113       2.07155   0.00000   0.00000   0.00000   0.00000   2.07155
   R114       2.07349   0.00000   0.00000   0.00000   0.00000   2.07349
   R115       2.90013   0.00000   0.00000   0.00000   0.00000   2.90013
   R116       2.06907   0.00000   0.00000   0.00000   0.00000   2.06907
   R117       2.07761   0.00000   0.00000   0.00000   0.00000   2.07761
   R118       2.91687   0.00000   0.00000   0.00000   0.00000   2.91687
   R119       2.07080   0.00000   0.00000   0.00000   0.00000   2.07080
   R120       2.91384   0.00000   0.00000   0.00000   0.00000   2.91384
   R121       2.89240   0.00000   0.00000   0.00000   0.00000   2.89240
   R122       2.07597   0.00000   0.00000   0.00000   0.00000   2.07597
   R123       2.06589   0.00000   0.00000   0.00000   0.00000   2.06589
   R124       2.89448   0.00000   0.00000   0.00000   0.00000   2.89448
   R125       2.06768   0.00000   0.00000   0.00000   0.00000   2.06768
   R126       2.06648   0.00000   0.00000   0.00000   0.00000   2.06648
   R127       2.06579   0.00000   0.00000   0.00000   0.00000   2.06579
   R128       2.06370   0.00000   0.00000   0.00000   0.00000   2.06370
   R129       2.05764   0.00000   0.00000   0.00000   0.00000   2.05764
   R130       2.75143   0.00000   0.00000   0.00000   0.00000   2.75143
   R131       2.52498   0.00000   0.00000   0.00000   0.00000   2.52498
   R132       2.29583   0.00000   0.00000   0.00000   0.00000   2.29583
   R133       2.86508   0.00000   0.00000   0.00000   0.00000   2.86508
   R134       3.68078   0.00000   0.00000   0.00000   0.00000   3.68078
   R135       2.07045   0.00000   0.00000   0.00000   0.00000   2.07045
   R136       2.05708   0.00000   0.00000   0.00000   0.00000   2.05708
   R137       2.89855   0.00000   0.00000   0.00000   0.00000   2.89855
   R138       2.05752   0.00000   0.00000   0.00000   0.00000   2.05752
   R139       2.87231   0.00000   0.00000   0.00000   0.00000   2.87231
   R140       3.52851   0.00000   0.00000   0.00000   0.00000   3.52851
   R141       2.28050   0.00000   0.00000   0.00000   0.00000   2.28050
   R142       2.54234   0.00000   0.00000   0.00000   0.00000   2.54234
   R143       2.73877   0.00000   0.00000   0.00000   0.00000   2.73877
   R144       2.06658   0.00000   0.00000   0.00000   0.00000   2.06658
   R145       2.06274   0.00000   0.00000   0.00000   0.00000   2.06274
   R146       2.88401   0.00000   0.00000   0.00000   0.00000   2.88401
   R147       2.07549   0.00000   0.00000   0.00000   0.00000   2.07549
   R148       2.91571   0.00000   0.00000   0.00000   0.00000   2.91571
   R149       2.91655   0.00000   0.00000   0.00000   0.00000   2.91655
   R150       2.06661   0.00000   0.00000   0.00000   0.00000   2.06661
   R151       2.07507   0.00000   0.00000   0.00000   0.00000   2.07507
   R152       2.89540   0.00000   0.00000   0.00000   0.00000   2.89540
   R153       2.06850   0.00000   0.00000   0.00000   0.00000   2.06850
   R154       2.06652   0.00000   0.00000   0.00000   0.00000   2.06652
   R155       2.06667   0.00000   0.00000   0.00000   0.00000   2.06667
   R156       2.06889   0.00000   0.00000   0.00000   0.00000   2.06889
   R157       2.07639   0.00000   0.00000   0.00000   0.00000   2.07639
   R158       2.90047   0.00000   0.00000   0.00000   0.00000   2.90047
   R159       2.07191   0.00000   0.00000   0.00000   0.00000   2.07191
   R160       2.07424   0.00000   0.00000   0.00000   0.00000   2.07424
   R161       2.89783   0.00000   0.00000   0.00000   0.00000   2.89783
   R162       2.07274   0.00000   0.00000   0.00000   0.00000   2.07274
   R163       2.07271   0.00000   0.00000   0.00000   0.00000   2.07271
   R164       2.89388   0.00000   0.00000   0.00000   0.00000   2.89388
   R165       2.06847   0.00000   0.00000   0.00000   0.00000   2.06847
   R166       2.06634   0.00000   0.00000   0.00000   0.00000   2.06634
   R167       2.06847   0.00000   0.00000   0.00000   0.00000   2.06847
   R168       2.81401   0.00000   0.00000   0.00000   0.00000   2.81401
   R169       2.79914   0.00000   0.00000   0.00000   0.00000   2.79914
   R170       2.82442   0.00000   0.00000   0.00000   0.00000   2.82442
   R171       6.98763   0.00000   0.00000   0.00000   0.00000   6.98763
   R172       2.05790   0.00000   0.00000   0.00000   0.00000   2.05790
   R173       2.05912   0.00000   0.00000   0.00000   0.00000   2.05912
   R174       2.05728   0.00000   0.00000   0.00000   0.00000   2.05728
   R175       2.85446   0.00000   0.00000   0.00000   0.00000   2.85446
   R176       2.85408   0.00000   0.00000   0.00000   0.00000   2.85408
   R177       2.84370   0.00000   0.00000   0.00000   0.00000   2.84370
   R178       2.86863   0.00000   0.00000   0.00000   0.00000   2.86863
   R179       2.05978   0.00000   0.00000   0.00000   0.00000   2.05978
   R180       2.05905   0.00000   0.00000   0.00000   0.00000   2.05905
   R181       2.06068   0.00000   0.00000   0.00000   0.00000   2.06068
   R182       2.05880   0.00000   0.00000   0.00000   0.00000   2.05880
   R183       2.05797   0.00000   0.00000   0.00000   0.00000   2.05797
   R184       2.05902   0.00000   0.00000   0.00000   0.00000   2.05902
   R185       2.06122   0.00000   0.00000   0.00000   0.00000   2.06122
   R186       2.06279   0.00000   0.00000   0.00000   0.00000   2.06279
   R187       2.88966   0.00000   0.00000   0.00000   0.00000   2.88966
   R188       2.07281   0.00000   0.00000   0.00000   0.00000   2.07281
   R189       2.06229   0.00000   0.00000   0.00000   0.00000   2.06229
   R190       2.68035   0.00000   0.00000   0.00000   0.00000   2.68035
   R191       1.83433   0.00000   0.00000   0.00000   0.00000   1.83433
    A1        1.94574   0.00000   0.00000   0.00000   0.00000   1.94574
    A2        1.90926   0.00000   0.00000   0.00000   0.00000   1.90926
    A3        1.88759   0.00000   0.00000   0.00000   0.00000   1.88759
    A4        1.92267   0.00000   0.00000   0.00000   0.00000   1.92267
    A5        1.89115   0.00000   0.00000   0.00000   0.00000   1.89115
    A6        1.90669   0.00000   0.00000   0.00000   0.00000   1.90669
    A7        1.93326   0.00000   0.00000   0.00000   0.00000   1.93326
    A8        1.89302   0.00000   0.00000   0.00000   0.00000   1.89302
    A9        1.93561   0.00000   0.00000   0.00000   0.00000   1.93561
   A10        1.90285   0.00000   0.00000   0.00000   0.00000   1.90285
   A11        1.93168   0.00000   0.00000   0.00000   0.00000   1.93168
   A12        1.86548   0.00000   0.00000   0.00000   0.00000   1.86548
   A13        1.89326   0.00000   0.00000   0.00000   0.00000   1.89326
   A14        1.89938   0.00000   0.00000   0.00000   0.00000   1.89938
   A15        1.89086   0.00000   0.00000   0.00000   0.00000   1.89086
   A16        1.91376   0.00000   0.00000   0.00000   0.00000   1.91376
   A17        1.93374   0.00000   0.00000   0.00000   0.00000   1.93374
   A18        1.93197   0.00000   0.00000   0.00000   0.00000   1.93197
   A19        2.80268   0.00000   0.00000   0.00000   0.00000   2.80268
   A20        1.90309   0.00000   0.00000   0.00000   0.00000   1.90309
   A21        1.88229   0.00000   0.00000   0.00000   0.00000   1.88229
   A22        1.89240   0.00000   0.00000   0.00000   0.00000   1.89240
   A23        1.92210   0.00000   0.00000   0.00000   0.00000   1.92210
   A24        1.93676   0.00000   0.00000   0.00000   0.00000   1.93676
   A25        1.92599   0.00000   0.00000   0.00000   0.00000   1.92599
   A26        2.73570   0.00000   0.00000   0.00000   0.00000   2.73570
   A27        1.83178   0.00000   0.00000   0.00000   0.00000   1.83178
   A28        1.84664   0.00000   0.00000   0.00000   0.00000   1.84664
   A29        2.03914   0.00000   0.00000   0.00000   0.00000   2.03914
   A30        1.93737   0.00000   0.00000   0.00000   0.00000   1.93737
   A31        1.87319   0.00000   0.00000   0.00000   0.00000   1.87319
   A32        1.93359   0.00000   0.00000   0.00000   0.00000   1.93359
   A33        1.95274   0.00000   0.00000   0.00000   0.00000   1.95274
   A34        1.93559   0.00000   0.00000   0.00000   0.00000   1.93559
   A35        1.87955   0.00000   0.00000   0.00000   0.00000   1.87955
   A36        1.89229   0.00000   0.00000   0.00000   0.00000   1.89229
   A37        1.87236   0.00000   0.00000   0.00000   0.00000   1.87236
   A38        1.93059   0.00000   0.00000   0.00000   0.00000   1.93059
   A39        1.88509   0.00000   0.00000   0.00000   0.00000   1.88509
   A40        2.23085   0.00000   0.00000   0.00000   0.00000   2.23085
   A41        1.41319   0.00000   0.00000   0.00000   0.00000   1.41319
   A42        1.89891   0.00000   0.00000   0.00000   0.00000   1.89891
   A43        1.89194   0.00000   0.00000   0.00000   0.00000   1.89194
   A44        1.96288   0.00000   0.00000   0.00000   0.00000   1.96288
   A45        1.89080   0.00000   0.00000   0.00000   0.00000   1.89080
   A46        1.91381   0.00000   0.00000   0.00000   0.00000   1.91381
   A47        1.90411   0.00000   0.00000   0.00000   0.00000   1.90411
   A48        1.95911   0.00000   0.00000   0.00000   0.00000   1.95911
   A49        1.96037   0.00000   0.00000   0.00000   0.00000   1.96037
   A50        1.79911   0.00000   0.00000   0.00000   0.00000   1.79911
   A51        1.94549   0.00000   0.00000   0.00000   0.00000   1.94549
   A52        1.86503   0.00000   0.00000   0.00000   0.00000   1.86503
   A53        1.92680   0.00000   0.00000   0.00000   0.00000   1.92680
   A54        1.97771   0.00000   0.00000   0.00000   0.00000   1.97771
   A55        1.90597   0.00000   0.00000   0.00000   0.00000   1.90597
   A56        1.91936   0.00000   0.00000   0.00000   0.00000   1.91936
   A57        1.89167   0.00000   0.00000   0.00000   0.00000   1.89167
   A58        1.87262   0.00000   0.00000   0.00000   0.00000   1.87262
   A59        1.89458   0.00000   0.00000   0.00000   0.00000   1.89458
   A60        2.05366   0.00000   0.00000   0.00000   0.00000   2.05366
   A61        2.17081   0.00000   0.00000   0.00000   0.00000   2.17081
   A62        2.05854   0.00000   0.00000   0.00000   0.00000   2.05854
   A63        2.07022   0.00000   0.00000   0.00000   0.00000   2.07022
   A64        2.13817   0.00000   0.00000   0.00000   0.00000   2.13817
   A65        2.07460   0.00000   0.00000   0.00000   0.00000   2.07460
   A66        2.09118   0.00000   0.00000   0.00000   0.00000   2.09118
   A67        2.08586   0.00000   0.00000   0.00000   0.00000   2.08586
   A68        2.10614   0.00000   0.00000   0.00000   0.00000   2.10614
   A69        2.11022   0.00000   0.00000   0.00000   0.00000   2.11022
   A70        2.07342   0.00000   0.00000   0.00000   0.00000   2.07342
   A71        2.09953   0.00000   0.00000   0.00000   0.00000   2.09953
   A72        2.07670   0.00000   0.00000   0.00000   0.00000   2.07670
   A73        2.14070   0.00000   0.00000   0.00000   0.00000   2.14070
   A74        2.06578   0.00000   0.00000   0.00000   0.00000   2.06578
   A75        2.06864   0.00000   0.00000   0.00000   0.00000   2.06864
   A76        2.19910   0.00000   0.00000   0.00000   0.00000   2.19910
   A77        2.01507   0.00000   0.00000   0.00000   0.00000   2.01507
   A78        1.89046   0.00000   0.00000   0.00000   0.00000   1.89046
   A79        1.96389   0.00000   0.00000   0.00000   0.00000   1.96389
   A80        1.96186   0.00000   0.00000   0.00000   0.00000   1.96186
   A81        1.85092   0.00000   0.00000   0.00000   0.00000   1.85092
   A82        1.88975   0.00000   0.00000   0.00000   0.00000   1.88975
   A83        1.90225   0.00000   0.00000   0.00000   0.00000   1.90225
   A84        1.90674   0.00000   0.00000   0.00000   0.00000   1.90674
   A85        1.91735   0.00000   0.00000   0.00000   0.00000   1.91735
   A86        1.99639   0.00000   0.00000   0.00000   0.00000   1.99639
   A87        1.84687   0.00000   0.00000   0.00000   0.00000   1.84687
   A88        1.87338   0.00000   0.00000   0.00000   0.00000   1.87338
   A89        1.91667   0.00000   0.00000   0.00000   0.00000   1.91667
   A90        1.89619   0.00000   0.00000   0.00000   0.00000   1.89619
   A91        1.94919   0.00000   0.00000   0.00000   0.00000   1.94919
   A92        1.89943   0.00000   0.00000   0.00000   0.00000   1.89943
   A93        1.88808   0.00000   0.00000   0.00000   0.00000   1.88808
   A94        1.85946   0.00000   0.00000   0.00000   0.00000   1.85946
   A95        1.96812   0.00000   0.00000   0.00000   0.00000   1.96812
   A96        2.09400   0.00000   0.00000   0.00000   0.00000   2.09400
   A97        2.12142   0.00000   0.00000   0.00000   0.00000   2.12142
   A98        2.06714   0.00000   0.00000   0.00000   0.00000   2.06714
   A99        2.10105   0.00000   0.00000   0.00000   0.00000   2.10105
   A100       2.10234   0.00000   0.00000   0.00000   0.00000   2.10234
   A101       2.07976   0.00000   0.00000   0.00000   0.00000   2.07976
   A102       2.07791   0.00000   0.00000   0.00000   0.00000   2.07791
   A103       2.10430   0.00000   0.00000   0.00000   0.00000   2.10430
   A104       2.10098   0.00000   0.00000   0.00000   0.00000   2.10098
   A105       2.08641   0.00000   0.00000   0.00000   0.00000   2.08641
   A106       2.09928   0.00000   0.00000   0.00000   0.00000   2.09928
   A107       2.09749   0.00000   0.00000   0.00000   0.00000   2.09749
   A108       2.06297   0.00000   0.00000   0.00000   0.00000   2.06297
   A109       2.15215   0.00000   0.00000   0.00000   0.00000   2.15215
   A110       2.06806   0.00000   0.00000   0.00000   0.00000   2.06806
   A111       2.13015   0.00000   0.00000   0.00000   0.00000   2.13015
   A112       2.07862   0.00000   0.00000   0.00000   0.00000   2.07862
   A113       2.07427   0.00000   0.00000   0.00000   0.00000   2.07427
   A114       1.99063   0.00000   0.00000   0.00000   0.00000   1.99063
   A115       2.21589   0.00000   0.00000   0.00000   0.00000   2.21589
   A116       2.07665   0.00000   0.00000   0.00000   0.00000   2.07665
   A117       2.10507   0.00000   0.00000   0.00000   0.00000   2.10507
   A118       2.21116   0.00000   0.00000   0.00000   0.00000   2.21116
   A119       1.96694   0.00000   0.00000   0.00000   0.00000   1.96694
   A120       2.01176   0.00000   0.00000   0.00000   0.00000   2.01176
   A121       2.14466   0.00000   0.00000   0.00000   0.00000   2.14466
   A122       2.12676   0.00000   0.00000   0.00000   0.00000   2.12676
   A123       2.08024   0.00000   0.00000   0.00000   0.00000   2.08024
   A124       2.14069   0.00000   0.00000   0.00000   0.00000   2.14069
   A125       2.06350   0.00000   0.00000   0.00000   0.00000   2.06350
   A126       2.07899   0.00000   0.00000   0.00000   0.00000   2.07899
   A127       2.08228   0.00000   0.00000   0.00000   0.00000   2.08228
   A128       2.04082   0.00000   0.00000   0.00000   0.00000   2.04082
   A129       2.16009   0.00000   0.00000   0.00000   0.00000   2.16009
   A130       2.08100   0.00000   0.00000   0.00000   0.00000   2.08100
   A131       2.10968   0.00000   0.00000   0.00000   0.00000   2.10968
   A132       2.09250   0.00000   0.00000   0.00000   0.00000   2.09250
   A133       2.11462   0.00000   0.00000   0.00000   0.00000   2.11462
   A134       2.08001   0.00000   0.00000   0.00000   0.00000   2.08001
   A135       2.08855   0.00000   0.00000   0.00000   0.00000   2.08855
   A136       2.13002   0.00000   0.00000   0.00000   0.00000   2.13002
   A137       2.06399   0.00000   0.00000   0.00000   0.00000   2.06399
   A138       2.08918   0.00000   0.00000   0.00000   0.00000   2.08918
   A139       2.08539   0.00000   0.00000   0.00000   0.00000   2.08539
   A140       2.07056   0.00000   0.00000   0.00000   0.00000   2.07056
   A141       2.12724   0.00000   0.00000   0.00000   0.00000   2.12724
   A142       2.08563   0.00000   0.00000   0.00000   0.00000   2.08563
   A143       2.09072   0.00000   0.00000   0.00000   0.00000   2.09072
   A144       2.10683   0.00000   0.00000   0.00000   0.00000   2.10683
   A145       2.08713   0.00000   0.00000   0.00000   0.00000   2.08713
   A146       2.09838   0.00000   0.00000   0.00000   0.00000   2.09838
   A147       2.09766   0.00000   0.00000   0.00000   0.00000   2.09766
   A148       1.77579   0.00000   0.00000   0.00000   0.00000   1.77579
   A149       1.83023   0.00000   0.00000   0.00000   0.00000   1.83023
   A150       1.88177   0.00000   0.00000   0.00000   0.00000   1.88177
   A151       2.05848   0.00000   0.00000   0.00000   0.00000   2.05848
   A152       1.87233   0.00000   0.00000   0.00000   0.00000   1.87233
   A153       1.89874   0.00000   0.00000   0.00000   0.00000   1.89874
   A154       1.91308   0.00000   0.00000   0.00000   0.00000   1.91308
   A155       2.08484   0.00000   0.00000   0.00000   0.00000   2.08484
   A156       2.12650   0.00000   0.00000   0.00000   0.00000   2.12650
   A157       1.96682   0.00000   0.00000   0.00000   0.00000   1.96682
   A158       2.03688   0.00000   0.00000   0.00000   0.00000   2.03688
   A159       2.03428   0.00000   0.00000   0.00000   0.00000   2.03428
   A160       2.05653   0.00000   0.00000   0.00000   0.00000   2.05653
   A161       2.06097   0.00000   0.00000   0.00000   0.00000   2.06097
   A162       2.00378   0.00000   0.00000   0.00000   0.00000   2.00378
   A163       2.03926   0.00000   0.00000   0.00000   0.00000   2.03926
   A164       2.06894   0.00000   0.00000   0.00000   0.00000   2.06894
   A165       2.04791   0.00000   0.00000   0.00000   0.00000   2.04791
   A166       2.06742   0.00000   0.00000   0.00000   0.00000   2.06742
   A167       2.06867   0.00000   0.00000   0.00000   0.00000   2.06867
   A168       2.03612   0.00000   0.00000   0.00000   0.00000   2.03612
   A169       2.00687   0.00000   0.00000   0.00000   0.00000   2.00687
   A170       1.90283   0.00000   0.00000   0.00000   0.00000   1.90283
   A171       1.91207   0.00000   0.00000   0.00000   0.00000   1.91207
   A172       1.98468   0.00000   0.00000   0.00000   0.00000   1.98468
   A173       1.88033   0.00000   0.00000   0.00000   0.00000   1.88033
   A174       1.89782   0.00000   0.00000   0.00000   0.00000   1.89782
   A175       1.88334   0.00000   0.00000   0.00000   0.00000   1.88334
   A176       2.03689   0.00000   0.00000   0.00000   0.00000   2.03689
   A177       2.06248   0.00000   0.00000   0.00000   0.00000   2.06248
   A178       2.18382   0.00000   0.00000   0.00000   0.00000   2.18382
   A179       2.06983   0.00000   0.00000   0.00000   0.00000   2.06983
   A180       1.62836   0.00000   0.00000   0.00000   0.00000   1.62836
   A181       2.55640   0.00000   0.00000   0.00000   0.00000   2.55640
   A182       1.89458   0.00000   0.00000   0.00000   0.00000   1.89458
   A183       1.87873   0.00000   0.00000   0.00000   0.00000   1.87873
   A184       1.87945   0.00000   0.00000   0.00000   0.00000   1.87945
   A185       1.94513   0.00000   0.00000   0.00000   0.00000   1.94513
   A186       1.87587   0.00000   0.00000   0.00000   0.00000   1.87587
   A187       1.94073   0.00000   0.00000   0.00000   0.00000   1.94073
   A188       1.94080   0.00000   0.00000   0.00000   0.00000   1.94080
   A189       1.91018   0.00000   0.00000   0.00000   0.00000   1.91018
   A190       1.90985   0.00000   0.00000   0.00000   0.00000   1.90985
   A191       1.97703   0.00000   0.00000   0.00000   0.00000   1.97703
   A192       1.85030   0.00000   0.00000   0.00000   0.00000   1.85030
   A193       1.90613   0.00000   0.00000   0.00000   0.00000   1.90613
   A194       1.90604   0.00000   0.00000   0.00000   0.00000   1.90604
   A195       1.90096   0.00000   0.00000   0.00000   0.00000   1.90096
   A196       1.90641   0.00000   0.00000   0.00000   0.00000   1.90641
   A197       1.97567   0.00000   0.00000   0.00000   0.00000   1.97567
   A198       1.84613   0.00000   0.00000   0.00000   0.00000   1.84613
   A199       1.92855   0.00000   0.00000   0.00000   0.00000   1.92855
   A200       1.90154   0.00000   0.00000   0.00000   0.00000   1.90154
   A201       1.89127   0.00000   0.00000   0.00000   0.00000   1.89127
   A202       1.91232   0.00000   0.00000   0.00000   0.00000   1.91232
   A203       2.01012   0.00000   0.00000   0.00000   0.00000   2.01012
   A204       1.84178   0.00000   0.00000   0.00000   0.00000   1.84178
   A205       1.89741   0.00000   0.00000   0.00000   0.00000   1.89741
   A206       1.90343   0.00000   0.00000   0.00000   0.00000   1.90343
   A207       1.89908   0.00000   0.00000   0.00000   0.00000   1.89908
   A208       1.95926   0.00000   0.00000   0.00000   0.00000   1.95926
   A209       1.90999   0.00000   0.00000   0.00000   0.00000   1.90999
   A210       1.88555   0.00000   0.00000   0.00000   0.00000   1.88555
   A211       1.87333   0.00000   0.00000   0.00000   0.00000   1.87333
   A212       1.93417   0.00000   0.00000   0.00000   0.00000   1.93417
   A213       1.89947   0.00000   0.00000   0.00000   0.00000   1.89947
   A214       1.89991   0.00000   0.00000   0.00000   0.00000   1.89991
   A215       1.98972   0.00000   0.00000   0.00000   0.00000   1.98972
   A216       1.85948   0.00000   0.00000   0.00000   0.00000   1.85948
   A217       1.92162   0.00000   0.00000   0.00000   0.00000   1.92162
   A218       1.88909   0.00000   0.00000   0.00000   0.00000   1.88909
   A219       1.96031   0.00000   0.00000   0.00000   0.00000   1.96031
   A220       1.93357   0.00000   0.00000   0.00000   0.00000   1.93357
   A221       1.92363   0.00000   0.00000   0.00000   0.00000   1.92363
   A222       1.87380   0.00000   0.00000   0.00000   0.00000   1.87380
   A223       1.89059   0.00000   0.00000   0.00000   0.00000   1.89059
   A224       1.87922   0.00000   0.00000   0.00000   0.00000   1.87922
   A225       1.93584   0.00000   0.00000   0.00000   0.00000   1.93584
   A226       1.95523   0.00000   0.00000   0.00000   0.00000   1.95523
   A227       1.94779   0.00000   0.00000   0.00000   0.00000   1.94779
   A228       1.91230   0.00000   0.00000   0.00000   0.00000   1.91230
   A229       1.81819   0.00000   0.00000   0.00000   0.00000   1.81819
   A230       1.88904   0.00000   0.00000   0.00000   0.00000   1.88904
   A231       2.06040   0.00000   0.00000   0.00000   0.00000   2.06040
   A232       2.16209   0.00000   0.00000   0.00000   0.00000   2.16209
   A233       1.95569   0.00000   0.00000   0.00000   0.00000   1.95569
   A234       2.16179   0.00000   0.00000   0.00000   0.00000   2.16179
   A235       2.47159   0.00000   0.00000   0.00000   0.00000   2.47159
   A236       1.85295   0.00000   0.00000   0.00000   0.00000   1.85295
   A237       1.88857   0.00000   0.00000   0.00000   0.00000   1.88857
   A238       2.02065   0.00000   0.00000   0.00000   0.00000   2.02065
   A239       1.86118   0.00000   0.00000   0.00000   0.00000   1.86118
   A240       1.89326   0.00000   0.00000   0.00000   0.00000   1.89326
   A241       1.93903   0.00000   0.00000   0.00000   0.00000   1.93903
   A242       1.94799   0.00000   0.00000   0.00000   0.00000   1.94799
   A243       1.99469   0.00000   0.00000   0.00000   0.00000   1.99469
   A244       1.92314   0.00000   0.00000   0.00000   0.00000   1.92314
   A245       1.87459   0.00000   0.00000   0.00000   0.00000   1.87459
   A246       1.80958   0.00000   0.00000   0.00000   0.00000   1.80958
   A247       1.90401   0.00000   0.00000   0.00000   0.00000   1.90401
   A248       2.16686   0.00000   0.00000   0.00000   0.00000   2.16686
   A249       1.95377   0.00000   0.00000   0.00000   0.00000   1.95377
   A250       2.16255   0.00000   0.00000   0.00000   0.00000   2.16255
   A251       2.03822   0.00000   0.00000   0.00000   0.00000   2.03822
   A252       1.89588   0.00000   0.00000   0.00000   0.00000   1.89588
   A253       1.88672   0.00000   0.00000   0.00000   0.00000   1.88672
   A254       1.88942   0.00000   0.00000   0.00000   0.00000   1.88942
   A255       1.88308   0.00000   0.00000   0.00000   0.00000   1.88308
   A256       1.94443   0.00000   0.00000   0.00000   0.00000   1.94443
   A257       1.96255   0.00000   0.00000   0.00000   0.00000   1.96255
   A258       1.87320   0.00000   0.00000   0.00000   0.00000   1.87320
   A259       1.93030   0.00000   0.00000   0.00000   0.00000   1.93030
   A260       1.91999   0.00000   0.00000   0.00000   0.00000   1.91999
   A261       1.88834   0.00000   0.00000   0.00000   0.00000   1.88834
   A262       1.89030   0.00000   0.00000   0.00000   0.00000   1.89030
   A263       1.95896   0.00000   0.00000   0.00000   0.00000   1.95896
   A264       1.89768   0.00000   0.00000   0.00000   0.00000   1.89768
   A265       1.89559   0.00000   0.00000   0.00000   0.00000   1.89559
   A266       1.99437   0.00000   0.00000   0.00000   0.00000   1.99437
   A267       1.85533   0.00000   0.00000   0.00000   0.00000   1.85533
   A268       1.90118   0.00000   0.00000   0.00000   0.00000   1.90118
   A269       1.91459   0.00000   0.00000   0.00000   0.00000   1.91459
   A270       1.93630   0.00000   0.00000   0.00000   0.00000   1.93630
   A271       1.93474   0.00000   0.00000   0.00000   0.00000   1.93474
   A272       1.96193   0.00000   0.00000   0.00000   0.00000   1.96193
   A273       1.87726   0.00000   0.00000   0.00000   0.00000   1.87726
   A274       1.87846   0.00000   0.00000   0.00000   0.00000   1.87846
   A275       1.87153   0.00000   0.00000   0.00000   0.00000   1.87153
   A276       1.89613   0.00000   0.00000   0.00000   0.00000   1.89613
   A277       1.90214   0.00000   0.00000   0.00000   0.00000   1.90214
   A278       2.01306   0.00000   0.00000   0.00000   0.00000   2.01306
   A279       1.84422   0.00000   0.00000   0.00000   0.00000   1.84422
   A280       1.88883   0.00000   0.00000   0.00000   0.00000   1.88883
   A281       1.91194   0.00000   0.00000   0.00000   0.00000   1.91194
   A282       1.92797   0.00000   0.00000   0.00000   0.00000   1.92797
   A283       1.90296   0.00000   0.00000   0.00000   0.00000   1.90296
   A284       1.97492   0.00000   0.00000   0.00000   0.00000   1.97492
   A285       1.85112   0.00000   0.00000   0.00000   0.00000   1.85112
   A286       1.89774   0.00000   0.00000   0.00000   0.00000   1.89774
   A287       1.90495   0.00000   0.00000   0.00000   0.00000   1.90495
   A288       1.90536   0.00000   0.00000   0.00000   0.00000   1.90536
   A289       1.90579   0.00000   0.00000   0.00000   0.00000   1.90579
   A290       1.97680   0.00000   0.00000   0.00000   0.00000   1.97680
   A291       1.85118   0.00000   0.00000   0.00000   0.00000   1.85118
   A292       1.91042   0.00000   0.00000   0.00000   0.00000   1.91042
   A293       1.91007   0.00000   0.00000   0.00000   0.00000   1.91007
   A294       1.94070   0.00000   0.00000   0.00000   0.00000   1.94070
   A295       1.94449   0.00000   0.00000   0.00000   0.00000   1.94449
   A296       1.94097   0.00000   0.00000   0.00000   0.00000   1.94097
   A297       1.87878   0.00000   0.00000   0.00000   0.00000   1.87878
   A298       1.87714   0.00000   0.00000   0.00000   0.00000   1.87714
   A299       1.87865   0.00000   0.00000   0.00000   0.00000   1.87865
   A300       1.80557   0.00000   0.00000   0.00000   0.00000   1.80557
   A301       1.85993   0.00000   0.00000   0.00000   0.00000   1.85993
   A302       1.85000   0.00000   0.00000   0.00000   0.00000   1.85000
   A303       1.99244   0.00000   0.00000   0.00000   0.00000   1.99244
   A304       1.96738   0.00000   0.00000   0.00000   0.00000   1.96738
   A305       1.97079   0.00000   0.00000   0.00000   0.00000   1.97079
   A306       1.64473   0.00000   0.00000   0.00000   0.00000   1.64473
   A307       2.47828   0.00000   0.00000   0.00000   0.00000   2.47828
   A308       1.81264   0.00000   0.00000   0.00000   0.00000   1.81264
   A309       1.92171   0.00000   0.00000   0.00000   0.00000   1.92171
   A310       1.91993   0.00000   0.00000   0.00000   0.00000   1.91993
   A311       1.89970   0.00000   0.00000   0.00000   0.00000   1.89970
   A312       1.92589   0.00000   0.00000   0.00000   0.00000   1.92589
   A313       1.88215   0.00000   0.00000   0.00000   0.00000   1.88215
   A314       1.91389   0.00000   0.00000   0.00000   0.00000   1.91389
   A315       1.91100   0.00000   0.00000   0.00000   0.00000   1.91100
   A316       1.89318   0.00000   0.00000   0.00000   0.00000   1.89318
   A317       1.92578   0.00000   0.00000   0.00000   0.00000   1.92578
   A318       1.89033   0.00000   0.00000   0.00000   0.00000   1.89033
   A319       1.94068   0.00000   0.00000   0.00000   0.00000   1.94068
   A320       1.90188   0.00000   0.00000   0.00000   0.00000   1.90188
   A321       1.87326   0.00000   0.00000   0.00000   0.00000   1.87326
   A322       1.91549   0.00000   0.00000   0.00000   0.00000   1.91549
   A323       1.88558   0.00000   0.00000   0.00000   0.00000   1.88558
   A324       1.93423   0.00000   0.00000   0.00000   0.00000   1.93423
   A325       1.92013   0.00000   0.00000   0.00000   0.00000   1.92013
   A326       1.93354   0.00000   0.00000   0.00000   0.00000   1.93354
   A327       1.89502   0.00000   0.00000   0.00000   0.00000   1.89502
   A328       1.90124   0.00000   0.00000   0.00000   0.00000   1.90124
   A329       1.89172   0.00000   0.00000   0.00000   0.00000   1.89172
   A330       1.91956   0.00000   0.00000   0.00000   0.00000   1.91956
   A331       1.91739   0.00000   0.00000   0.00000   0.00000   1.91739
   A332       1.93812   0.00000   0.00000   0.00000   0.00000   1.93812
   A333       2.61547   0.00000   0.00000   0.00000   0.00000   2.61547
   A334       1.86694   0.00000   0.00000   0.00000   0.00000   1.86694
   A335       1.86539   0.00000   0.00000   0.00000   0.00000   1.86539
   A336       2.00245   0.00000   0.00000   0.00000   0.00000   2.00245
   A337       1.89048   0.00000   0.00000   0.00000   0.00000   1.89048
   A338       1.90561   0.00000   0.00000   0.00000   0.00000   1.90561
   A339       1.92910   0.00000   0.00000   0.00000   0.00000   1.92910
   A340       1.92230   0.00000   0.00000   0.00000   0.00000   1.92230
   A341       1.93751   0.00000   0.00000   0.00000   0.00000   1.93751
   A342       1.85541   0.00000   0.00000   0.00000   0.00000   1.85541
   A343       1.88292   0.00000   0.00000   0.00000   0.00000   1.88292
   A344       1.92915   0.00000   0.00000   0.00000   0.00000   1.92915
   A345       1.93713   0.00000   0.00000   0.00000   0.00000   1.93713
   A346       1.10365   0.00000   0.00000   0.00000   0.00000   1.10365
   A347       1.85982   0.00000   0.00000   0.00000   0.00000   1.85982
   A348       2.77746   0.00000   0.00000   0.00000   0.00000   2.77746
   A349       3.02584   0.00000   0.00000   0.00000   0.00000   3.02584
   A350       3.25452   0.00000   0.00000   0.00000   0.00000   3.25452
   A351       3.11367   0.00000   0.00000   0.00000   0.00000   3.11367
   A352       2.98484   0.00000   0.00000   0.00000   0.00000   2.98484
    D1       -1.20766   0.00000   0.00000   0.00000   0.00000  -1.20766
    D2        0.88001   0.00000   0.00000   0.00000   0.00000   0.88001
    D3        2.92348   0.00000   0.00000   0.00000   0.00000   2.92348
    D4        2.96393   0.00000   0.00000   0.00000   0.00000   2.96393
    D5       -1.23159   0.00000   0.00000   0.00000   0.00000  -1.23159
    D6        0.81189   0.00000   0.00000   0.00000   0.00000   0.81189
    D7        0.86901   0.00000   0.00000   0.00000   0.00000   0.86901
    D8        2.95668   0.00000   0.00000   0.00000   0.00000   2.95668
    D9       -1.28303   0.00000   0.00000   0.00000   0.00000  -1.28303
   D10        0.99278   0.00000   0.00000   0.00000   0.00000   0.99278
   D11       -1.08841   0.00000   0.00000   0.00000   0.00000  -1.08841
   D12        3.09306   0.00000   0.00000   0.00000   0.00000   3.09306
   D13       -1.08898   0.00000   0.00000   0.00000   0.00000  -1.08898
   D14        3.11302   0.00000   0.00000   0.00000   0.00000   3.11302
   D15        1.01130   0.00000   0.00000   0.00000   0.00000   1.01130
   D16       -3.13610   0.00000   0.00000   0.00000   0.00000  -3.13610
   D17        1.06590   0.00000   0.00000   0.00000   0.00000   1.06590
   D18       -1.03582   0.00000   0.00000   0.00000   0.00000  -1.03582
   D19        3.01007   0.00000   0.00000   0.00000   0.00000   3.01007
   D20        0.92310   0.00000   0.00000   0.00000   0.00000   0.92310
   D21       -1.16250   0.00000   0.00000   0.00000   0.00000  -1.16250
   D22       -1.16651   0.00000   0.00000   0.00000   0.00000  -1.16651
   D23        3.02971   0.00000   0.00000   0.00000   0.00000   3.02971
   D24        0.94411   0.00000   0.00000   0.00000   0.00000   0.94411
   D25        0.92211   0.00000   0.00000   0.00000   0.00000   0.92211
   D26       -1.16485   0.00000   0.00000   0.00000   0.00000  -1.16485
   D27        3.03273   0.00000   0.00000   0.00000   0.00000   3.03273
   D28       -1.13768   0.00000   0.00000   0.00000   0.00000  -1.13768
   D29        3.09541   0.00000   0.00000   0.00000   0.00000   3.09541
   D30        0.93440   0.00000   0.00000   0.00000   0.00000   0.93440
   D31        2.99256   0.00000   0.00000   0.00000   0.00000   2.99256
   D32        0.94246   0.00000   0.00000   0.00000   0.00000   0.94246
   D33       -1.21855   0.00000   0.00000   0.00000   0.00000  -1.21855
   D34        0.92261   0.00000   0.00000   0.00000   0.00000   0.92261
   D35       -1.12749   0.00000   0.00000   0.00000   0.00000  -1.12749
   D36        2.99469   0.00000   0.00000   0.00000   0.00000   2.99469
   D37        0.27499   0.00000   0.00000   0.00000   0.00000   0.27499
   D38        2.34986   0.00000   0.00000   0.00000   0.00000   2.34986
   D39       -1.80632   0.00000   0.00000   0.00000   0.00000  -1.80632
   D40       -0.41436   0.00000   0.00000   0.00000   0.00000  -0.41436
   D41       -1.43463   0.00000   0.00000   0.00000   0.00000  -1.43463
   D42        0.62748   0.00000   0.00000   0.00000   0.00000   0.62748
   D43        2.76529   0.00000   0.00000   0.00000   0.00000   2.76529
   D44        2.29339   0.00000   0.00000   0.00000   0.00000   2.29339
   D45        1.23310   0.00000   0.00000   0.00000   0.00000   1.23310
   D46       -0.88210   0.00000   0.00000   0.00000   0.00000  -0.88210
   D47       -2.99670   0.00000   0.00000   0.00000   0.00000  -2.99670
   D48       -3.00047   0.00000   0.00000   0.00000   0.00000  -3.00047
   D49        1.16752   0.00000   0.00000   0.00000   0.00000   1.16752
   D50       -0.94708   0.00000   0.00000   0.00000   0.00000  -0.94708
   D51       -0.88281   0.00000   0.00000   0.00000   0.00000  -0.88281
   D52       -2.99800   0.00000   0.00000   0.00000   0.00000  -2.99800
   D53        1.17058   0.00000   0.00000   0.00000   0.00000   1.17058
   D54        1.07456   0.00000   0.00000   0.00000   0.00000   1.07456
   D55       -0.53964   0.00000   0.00000   0.00000   0.00000  -0.53964
   D56       -3.10389   0.00000   0.00000   0.00000   0.00000  -3.10389
   D57        1.56509   0.00000   0.00000   0.00000   0.00000   1.56509
   D58       -1.04316   0.00000   0.00000   0.00000   0.00000  -1.04316
   D59       -2.65737   0.00000   0.00000   0.00000   0.00000  -2.65737
   D60        0.30477   0.00000   0.00000   0.00000   0.00000   0.30477
   D61       -2.62856   0.00000   0.00000   0.00000   0.00000  -2.62856
   D62        2.50050   0.00000   0.00000   0.00000   0.00000   2.50051
   D63       -0.43282   0.00000   0.00000   0.00000   0.00000  -0.43282
   D64       -2.40154   0.00000   0.00000   0.00000   0.00000  -2.40154
   D65       -0.33695   0.00000   0.00000   0.00000   0.00000  -0.33695
   D66        1.73826   0.00000   0.00000   0.00000   0.00000   1.73826
   D67        2.00149   0.00000   0.00000   0.00000   0.00000   2.00149
   D68       -2.21711   0.00000   0.00000   0.00000   0.00000  -2.21711
   D69       -0.14189   0.00000   0.00000   0.00000   0.00000  -0.14189
   D70       -1.08494   0.00000   0.00000   0.00000   0.00000  -1.08494
   D71        1.12364   0.00000   0.00000   0.00000   0.00000   1.12364
   D72       -3.08559   0.00000   0.00000   0.00000   0.00000  -3.08559
   D73        3.08299   0.00000   0.00000   0.00000   0.00000   3.08299
   D74       -0.99162   0.00000   0.00000   0.00000   0.00000  -0.99162
   D75        1.08233   0.00000   0.00000   0.00000   0.00000   1.08233
   D76        1.01480   0.00000   0.00000   0.00000   0.00000   1.01480
   D77       -3.05981   0.00000   0.00000   0.00000   0.00000  -3.05981
   D78       -0.98585   0.00000   0.00000   0.00000   0.00000  -0.98585
   D79        1.13156   0.00000   0.00000   0.00000   0.00000   1.13156
   D80       -0.97884   0.00000   0.00000   0.00000   0.00000  -0.97884
   D81       -3.05605   0.00000   0.00000   0.00000   0.00000  -3.05605
   D82       -1.08502   0.00000   0.00000   0.00000   0.00000  -1.08502
   D83        3.08777   0.00000   0.00000   0.00000   0.00000   3.08777
   D84        1.01056   0.00000   0.00000   0.00000   0.00000   1.01056
   D85        3.09160   0.00000   0.00000   0.00000   0.00000   3.09160
   D86        0.98120   0.00000   0.00000   0.00000   0.00000   0.98120
   D87       -1.09601   0.00000   0.00000   0.00000   0.00000  -1.09601
   D88        2.03103   0.00000   0.00000   0.00000   0.00000   2.03103
   D89       -1.13088   0.00000   0.00000   0.00000   0.00000  -1.13088
   D90       -2.03626   0.00000   0.00000   0.00000   0.00000  -2.03626
   D91        1.08501   0.00000   0.00000   0.00000   0.00000   1.08501
   D92        0.03373   0.00000   0.00000   0.00000   0.00000   0.03373
   D93       -3.12819   0.00000   0.00000   0.00000   0.00000  -3.12819
   D94        2.88847   0.00000   0.00000   0.00000   0.00000   2.88847
   D95        0.82091   0.00000   0.00000   0.00000   0.00000   0.82091
   D96       -1.29754   0.00000   0.00000   0.00000   0.00000  -1.29754
   D97       -0.07454   0.00000   0.00000   0.00000   0.00000  -0.07454
   D98        3.08915   0.00000   0.00000   0.00000   0.00000   3.08915
   D99        3.08604   0.00000   0.00000   0.00000   0.00000   3.08604
   D100      -0.03345   0.00000   0.00000   0.00000   0.00000  -0.03345
   D101      -3.07272   0.00000   0.00000   0.00000   0.00000  -3.07272
   D102       0.09940   0.00000   0.00000   0.00000   0.00000   0.09940
   D103       0.04849   0.00000   0.00000   0.00000   0.00000   0.04849
   D104      -3.06257   0.00000   0.00000   0.00000   0.00000  -3.06257
   D105       3.14080   0.00000   0.00000   0.00000   0.00000   3.14080
   D106      -0.00372   0.00000   0.00000   0.00000   0.00000  -0.00372
   D107       0.02136   0.00000   0.00000   0.00000   0.00000   0.02136
   D108      -3.12316   0.00000   0.00000   0.00000   0.00000  -3.12316
   D109      -3.12370   0.00000   0.00000   0.00000   0.00000  -3.12370
   D110       0.02473   0.00000   0.00000   0.00000   0.00000   0.02473
   D111       0.01494   0.00000   0.00000   0.00000   0.00000   0.01494
   D112      -3.11981   0.00000   0.00000   0.00000   0.00000  -3.11981
   D113       3.13191   0.00000   0.00000   0.00000   0.00000   3.13191
   D114      -0.00827   0.00000   0.00000   0.00000   0.00000  -0.00827
   D115      -0.00288   0.00000   0.00000   0.00000   0.00000  -0.00288
   D116       3.14012   0.00000   0.00000   0.00000   0.00000   3.14012
   D117      -0.02907   0.00000   0.00000   0.00000   0.00000  -0.02907
   D118       3.08516   0.00000   0.00000   0.00000   0.00000   3.08516
   D119       3.11393   0.00000   0.00000   0.00000   0.00000   3.11393
   D120      -0.05503   0.00000   0.00000   0.00000   0.00000  -0.05503
   D121      -2.31906   0.00000   0.00000   0.00000   0.00000  -2.31906
   D122      -0.27866   0.00000   0.00000   0.00000   0.00000  -0.27866
   D123       1.87693   0.00000   0.00000   0.00000   0.00000   1.87693
   D124       0.85225   0.00000   0.00000   0.00000   0.00000   0.85225
   D125       2.89265   0.00000   0.00000   0.00000   0.00000   2.89265
   D126      -1.23495   0.00000   0.00000   0.00000   0.00000  -1.23495
   D127       0.95044   0.00000   0.00000   0.00000   0.00000   0.95044
   D128      -1.06824   0.00000   0.00000   0.00000   0.00000  -1.06824
   D129       3.05042   0.00000   0.00000   0.00000   0.00000   3.05042
   D130      -1.13716   0.00000   0.00000   0.00000   0.00000  -1.13716
   D131       3.12734   0.00000   0.00000   0.00000   0.00000   3.12734
   D132       0.96281   0.00000   0.00000   0.00000   0.00000   0.96281
   D133       3.14006   0.00000   0.00000   0.00000   0.00000   3.14006
   D134       1.12137   0.00000   0.00000   0.00000   0.00000   1.12137
   D135      -1.04315   0.00000   0.00000   0.00000   0.00000  -1.04315
   D136      -0.81642   0.00000   0.00000   0.00000   0.00000  -0.81642
   D137      -2.89753   0.00000   0.00000   0.00000   0.00000  -2.89753
   D138       1.20161   0.00000   0.00000   0.00000   0.00000   1.20161
   D139       1.30202   0.00000   0.00000   0.00000   0.00000   1.30202
   D140      -0.77909   0.00000   0.00000   0.00000   0.00000  -0.77909
   D141      -2.96313   0.00000   0.00000   0.00000   0.00000  -2.96313
   D142      -2.98130   0.00000   0.00000   0.00000   0.00000  -2.98130
   D143       1.22077   0.00000   0.00000   0.00000   0.00000   1.22077
   D144      -0.96327   0.00000   0.00000   0.00000   0.00000  -0.96327
   D145       1.97013   0.00000   0.00000   0.00000   0.00000   1.97013
   D146      -1.13285   0.00000   0.00000   0.00000   0.00000  -1.13285
   D147      -0.11579   0.00000   0.00000   0.00000   0.00000  -0.11579
   D148       3.06442   0.00000   0.00000   0.00000   0.00000   3.06442
   D149      -2.16767   0.00000   0.00000   0.00000   0.00000  -2.16767
   D150       1.01254   0.00000   0.00000   0.00000   0.00000   1.01254
   D151      -2.91780   0.00000   0.00000   0.00000   0.00000  -2.91780
   D152      -0.87620   0.00000   0.00000   0.00000   0.00000  -0.87620
   D153       1.19247   0.00000   0.00000   0.00000   0.00000   1.19247
   D154       0.06471   0.00000   0.00000   0.00000   0.00000   0.06471
   D155      -3.08603   0.00000   0.00000   0.00000   0.00000  -3.08603
   D156      -3.11430   0.00000   0.00000   0.00000   0.00000  -3.11430
   D157       0.01814   0.00000   0.00000   0.00000   0.00000   0.01814
   D158       3.08776   0.00000   0.00000   0.00000   0.00000   3.08776
   D159      -0.07227   0.00000   0.00000   0.00000   0.00000  -0.07227
   D160      -0.01579   0.00000   0.00000   0.00000   0.00000  -0.01579
   D161       3.10736   0.00000   0.00000   0.00000   0.00000   3.10736
   D162       3.13746   0.00000   0.00000   0.00000   0.00000   3.13746
   D163      -0.00545   0.00000   0.00000   0.00000   0.00000  -0.00545
   D164      -0.01317   0.00000   0.00000   0.00000   0.00000  -0.01317
   D165       3.12710   0.00000   0.00000   0.00000   0.00000   3.12710
   D166       3.12718   0.00000   0.00000   0.00000   0.00000   3.12718
   D167      -0.01025   0.00000   0.00000   0.00000   0.00000  -0.01025
   D168      -0.01575   0.00000   0.00000   0.00000   0.00000  -0.01575
   D169       3.13001   0.00000   0.00000   0.00000   0.00000   3.13001
   D170       0.01254   0.00000   0.00000   0.00000   0.00000   0.01254
   D171      -3.12632   0.00000   0.00000   0.00000   0.00000  -3.12632
   D172      -3.12486   0.00000   0.00000   0.00000   0.00000  -3.12486
   D173       0.01947   0.00000   0.00000   0.00000   0.00000   0.01947
   D174       0.00058   0.00000   0.00000   0.00000   0.00000   0.00058
   D175      -3.12262   0.00000   0.00000   0.00000   0.00000  -3.12262
   D176       3.13957   0.00000   0.00000   0.00000   0.00000   3.13957
   D177       0.01637   0.00000   0.00000   0.00000   0.00000   0.01637
   D178      -3.11557   0.00000   0.00000   0.00000   0.00000  -3.11557
   D179       0.03260   0.00000   0.00000   0.00000   0.00000   0.03260
   D180       0.02876   0.00000   0.00000   0.00000   0.00000   0.02876
   D181      -3.10625   0.00000   0.00000   0.00000   0.00000  -3.10625
   D182       0.00280   0.00000   0.00000   0.00000   0.00000   0.00280
   D183       3.13752   0.00000   0.00000   0.00000   0.00000   3.13752
   D184      -3.13192   0.00000   0.00000   0.00000   0.00000  -3.13192
   D185       0.00279   0.00000   0.00000   0.00000   0.00000   0.00279
   D186      -3.09264   0.00000   0.00000   0.00000   0.00000  -3.09264
   D187       0.05030   0.00000   0.00000   0.00000   0.00000   0.05030
   D188       0.04254   0.00000   0.00000   0.00000   0.00000   0.04254
   D189      -3.09771   0.00000   0.00000   0.00000   0.00000  -3.09771
   D190       3.13924   0.00000   0.00000   0.00000   0.00000   3.13924
   D191      -0.00369   0.00000   0.00000   0.00000   0.00000  -0.00369
   D192      -3.13944   0.00000   0.00000   0.00000   0.00000  -3.13944
   D193       0.00698   0.00000   0.00000   0.00000   0.00000   0.00698
   D194       0.00359   0.00000   0.00000   0.00000   0.00000   0.00359
   D195      -3.13318   0.00000   0.00000   0.00000   0.00000  -3.13318
   D196       0.00110   0.00000   0.00000   0.00000   0.00000   0.00110
   D197      -3.14076   0.00000   0.00000   0.00000   0.00000  -3.14076
   D198       3.14129   0.00000   0.00000   0.00000   0.00000   3.14129
   D199       0.00155   0.00000   0.00000   0.00000   0.00000   0.00155
   D200      -0.00003   0.00000   0.00000   0.00000   0.00000  -0.00003
   D201      -3.13977   0.00000   0.00000   0.00000   0.00000  -3.13977
   D202       3.14145   0.00000   0.00000   0.00000   0.00000   3.14145
   D203      -0.00036   0.00000   0.00000   0.00000   0.00000  -0.00036
   D204      -0.00040   0.00000   0.00000   0.00000   0.00000  -0.00040
   D205       3.14098   0.00000   0.00000   0.00000   0.00000   3.14098
   D206      -3.14091   0.00000   0.00000   0.00000   0.00000  -3.14091
   D207       0.00049   0.00000   0.00000   0.00000   0.00000   0.00049
   D208      -0.00131   0.00000   0.00000   0.00000   0.00000  -0.00131
   D209       3.14010   0.00000   0.00000   0.00000   0.00000   3.14010
   D210       3.13738   0.00000   0.00000   0.00000   0.00000   3.13738
   D211      -0.00161   0.00000   0.00000   0.00000   0.00000  -0.00161
   D212      -0.00227   0.00000   0.00000   0.00000   0.00000  -0.00227
   D213      -3.14126   0.00000   0.00000   0.00000   0.00000  -3.14126
   D214       3.14148   0.00000   0.00000   0.00000   0.00000   3.14148
   D215      -0.00050   0.00000   0.00000   0.00000   0.00000  -0.00050
   D216      -0.00031   0.00000   0.00000   0.00000   0.00000  -0.00031
   D217       3.14090   0.00000   0.00000   0.00000   0.00000   3.14090
   D218       0.00005   0.00000   0.00000   0.00000   0.00000   0.00005
   D219      -3.14137   0.00000   0.00000   0.00000   0.00000  -3.14137
   D220       3.14126   0.00000   0.00000   0.00000   0.00000   3.14126
   D221      -0.00015   0.00000   0.00000   0.00000   0.00000  -0.00015
   D222       0.00040   0.00000   0.00000   0.00000   0.00000   0.00040
   D223      -3.14097   0.00000   0.00000   0.00000   0.00000  -3.14097
   D224      -3.14137   0.00000   0.00000   0.00000   0.00000  -3.14137
   D225       0.00044   0.00000   0.00000   0.00000   0.00000   0.00044
   D226      -0.00078   0.00000   0.00000   0.00000   0.00000  -0.00078
   D227       3.13599   0.00000   0.00000   0.00000   0.00000   3.13599
   D228      -3.13974   0.00000   0.00000   0.00000   0.00000  -3.13974
   D229      -0.00297   0.00000   0.00000   0.00000   0.00000  -0.00297
   D230      -2.51490   0.00000   0.00000   0.00000   0.00000  -2.51490
   D231      -0.52378   0.00000   0.00000   0.00000   0.00000  -0.52378
   D232       1.65298   0.00000   0.00000   0.00000   0.00000   1.65298
   D233       0.76520   0.00000   0.00000   0.00000   0.00000   0.76520
   D234      -0.47738   0.00000   0.00000   0.00000   0.00000  -0.47738
   D235      -3.02736   0.00000   0.00000   0.00000   0.00000  -3.02736
   D236      -1.31447   0.00000   0.00000   0.00000   0.00000  -1.31447
   D237      -2.55705   0.00000   0.00000   0.00000   0.00000  -2.55705
   D238       1.17615   0.00000   0.00000   0.00000   0.00000   1.17615
   D239       2.92639   0.00000   0.00000   0.00000   0.00000   2.92639
   D240       1.68381   0.00000   0.00000   0.00000   0.00000   1.68381
   D241      -0.86617   0.00000   0.00000   0.00000   0.00000  -0.86617
   D242      -0.09567   0.00000   0.00000   0.00000   0.00000  -0.09567
   D243       2.43564   0.00000   0.00000   0.00000   0.00000   2.43564
   D244      -2.56109   0.00000   0.00000   0.00000   0.00000  -2.56109
   D245      -0.02978   0.00000   0.00000   0.00000   0.00000  -0.02978
   D246      -2.49753   0.00000   0.00000   0.00000   0.00000  -2.49753
   D247       0.03635   0.00000   0.00000   0.00000   0.00000   0.03635
   D248       0.03119   0.00000   0.00000   0.00000   0.00000   0.03119
   D249       2.56507   0.00000   0.00000   0.00000   0.00000   2.56507
   D250      -0.78619   0.00000   0.00000   0.00000   0.00000  -0.78619
   D251      -2.83993   0.00000   0.00000   0.00000   0.00000  -2.83993
   D252       1.33448   0.00000   0.00000   0.00000   0.00000   1.33448
   D253       1.72354   0.00000   0.00000   0.00000   0.00000   1.72354
   D254      -0.33020   0.00000   0.00000   0.00000   0.00000  -0.33020
   D255      -2.43898   0.00000   0.00000   0.00000   0.00000  -2.43898
   D256       2.91360   0.00000   0.00000   0.00000   0.00000   2.91360
   D257       0.85986   0.00000   0.00000   0.00000   0.00000   0.85986
   D258      -1.24892   0.00000   0.00000   0.00000   0.00000  -1.24892
   D259       2.53124   0.00000   0.00000   0.00000   0.00000   2.53124
   D260       0.01484   0.00000   0.00000   0.00000   0.00000   0.01484
   D261       0.01540   0.00000   0.00000   0.00000   0.00000   0.01540
   D262      -2.50100   0.00000   0.00000   0.00000   0.00000  -2.50100
   D263      -1.15547   0.00000   0.00000   0.00000   0.00000  -1.15547
   D264       1.98805   0.00000   0.00000   0.00000   0.00000   1.98805
   D265       0.96798   0.00000   0.00000   0.00000   0.00000   0.96798
   D266      -2.17169   0.00000   0.00000   0.00000   0.00000  -2.17169
   D267       3.00290   0.00000   0.00000   0.00000   0.00000   3.00290
   D268      -0.13677   0.00000   0.00000   0.00000   0.00000  -0.13676
   D269       2.71031   0.00000   0.00000   0.00000   0.00000   2.71031
   D270      -0.77596   0.00000   0.00000   0.00000   0.00000  -0.77596
   D271      -0.43336   0.00000   0.00000   0.00000   0.00000  -0.43336
   D272       2.36356   0.00000   0.00000   0.00000   0.00000   2.36356
   D273       1.73544   0.00000   0.00000   0.00000   0.00000   1.73544
   D274      -1.10442   0.00000   0.00000   0.00000   0.00000  -1.10442
   D275       1.01118   0.00000   0.00000   0.00000   0.00000   1.01118
   D276      -1.00937   0.00000   0.00000   0.00000   0.00000  -1.00937
   D277      -3.14051   0.00000   0.00000   0.00000   0.00000  -3.14051
   D278      -1.08508   0.00000   0.00000   0.00000   0.00000  -1.08508
   D279      -3.10562   0.00000   0.00000   0.00000   0.00000  -3.10562
   D280       1.04643   0.00000   0.00000   0.00000   0.00000   1.04643
   D281       3.10839   0.00000   0.00000   0.00000   0.00000   3.10839
   D282       1.08784   0.00000   0.00000   0.00000   0.00000   1.08784
   D283      -1.04329   0.00000   0.00000   0.00000   0.00000  -1.04329
   D284       1.00484   0.00000   0.00000   0.00000   0.00000   1.00484
   D285      -1.00372   0.00000   0.00000   0.00000   0.00000  -1.00372
   D286      -3.12567   0.00000   0.00000   0.00000   0.00000  -3.12567
   D287       3.13860   0.00000   0.00000   0.00000   0.00000   3.13860
   D288       1.13004   0.00000   0.00000   0.00000   0.00000   1.13004
   D289      -0.99191   0.00000   0.00000   0.00000   0.00000  -0.99191
   D290      -1.12842   0.00000   0.00000   0.00000   0.00000  -1.12842
   D291      -3.13698   0.00000   0.00000   0.00000   0.00000  -3.13698
   D292       1.02426   0.00000   0.00000   0.00000   0.00000   1.02426
   D293       1.02026   0.00000   0.00000   0.00000   0.00000   1.02026
   D294      -0.98101   0.00000   0.00000   0.00000   0.00000  -0.98101
   D295      -3.13411   0.00000   0.00000   0.00000   0.00000  -3.13411
   D296      -3.12553   0.00000   0.00000   0.00000   0.00000  -3.12553
   D297       1.15638   0.00000   0.00000   0.00000   0.00000   1.15638
   D298      -0.99672   0.00000   0.00000   0.00000   0.00000  -0.99672
   D299      -1.10442   0.00000   0.00000   0.00000   0.00000  -1.10442
   D300      -3.10570   0.00000   0.00000   0.00000   0.00000  -3.10570
   D301       1.02439   0.00000   0.00000   0.00000   0.00000   1.02439
   D302      -0.71589   0.00000   0.00000   0.00000   0.00000  -0.71589
   D303      -2.80196   0.00000   0.00000   0.00000   0.00000  -2.80196
   D304       1.32609   0.00000   0.00000   0.00000   0.00000   1.32609
   D305       1.40961   0.00000   0.00000   0.00000   0.00000   1.40961
   D306      -0.67646   0.00000   0.00000   0.00000   0.00000  -0.67646
   D307      -2.83160   0.00000   0.00000   0.00000   0.00000  -2.83160
   D308      -2.87370   0.00000   0.00000   0.00000   0.00000  -2.87370
   D309       1.32342   0.00000   0.00000   0.00000   0.00000   1.32342
   D310      -0.83172   0.00000   0.00000   0.00000   0.00000  -0.83172
   D311      -0.84361   0.00000   0.00000   0.00000   0.00000  -0.84361
   D312      -2.86370   0.00000   0.00000   0.00000   0.00000  -2.86370
   D313       1.30876   0.00000   0.00000   0.00000   0.00000   1.30876
   D314      -2.93757   0.00000   0.00000   0.00000   0.00000  -2.93757
   D315       1.32553   0.00000   0.00000   0.00000   0.00000   1.32553
   D316      -0.78520   0.00000   0.00000   0.00000   0.00000  -0.78520
   D317       1.29792   0.00000   0.00000   0.00000   0.00000   1.29792
   D318      -0.72216   0.00000   0.00000   0.00000   0.00000  -0.72216
   D319      -2.83289   0.00000   0.00000   0.00000   0.00000  -2.83289
   D320       1.27948   0.00000   0.00000   0.00000   0.00000   1.27948
   D321      -0.86338   0.00000   0.00000   0.00000   0.00000  -0.86338
   D322      -2.98479   0.00000   0.00000   0.00000   0.00000  -2.98479
   D323      -2.94556   0.00000   0.00000   0.00000   0.00000  -2.94556
   D324       1.19477   0.00000   0.00000   0.00000   0.00000   1.19477
   D325      -0.92664   0.00000   0.00000   0.00000   0.00000  -0.92664
   D326      -0.89039   0.00000   0.00000   0.00000   0.00000  -0.89039
   D327      -3.03326   0.00000   0.00000   0.00000   0.00000  -3.03326
   D328       1.12852   0.00000   0.00000   0.00000   0.00000   1.12852
   D329      -1.03181   0.00000   0.00000   0.00000   0.00000  -1.03181
   D330      -3.12715   0.00000   0.00000   0.00000   0.00000  -3.12715
   D331       1.07800   0.00000   0.00000   0.00000   0.00000   1.07800
   D332       1.10849   0.00000   0.00000   0.00000   0.00000   1.10849
   D333      -0.98685   0.00000   0.00000   0.00000   0.00000  -0.98685
   D334      -3.06489   0.00000   0.00000   0.00000   0.00000  -3.06489
   D335       3.13462   0.00000   0.00000   0.00000   0.00000   3.13462
   D336       1.03929   0.00000   0.00000   0.00000   0.00000   1.03929
   D337      -1.03875   0.00000   0.00000   0.00000   0.00000  -1.03875
   D338       1.57330   0.00000   0.00000   0.00000   0.00000   1.57330
   D339      -2.62008   0.00000   0.00000   0.00000   0.00000  -2.62008
   D340      -0.58600   0.00000   0.00000   0.00000   0.00000  -0.58600
   D341       0.10224   0.00000   0.00000   0.00000   0.00000   0.10224
   D342      -3.12766   0.00000   0.00000   0.00000   0.00000  -3.12766
   D343      -2.58457   0.00000   0.00000   0.00000   0.00000  -2.58457
   D344       0.65561   0.00000   0.00000   0.00000   0.00000   0.65561
   D345      -1.34092   0.00000   0.00000   0.00000   0.00000  -1.34092
   D346       2.94993   0.00000   0.00000   0.00000   0.00000   2.94993
   D347       0.76086   0.00000   0.00000   0.00000   0.00000   0.76086
   D348       1.71239   0.00000   0.00000   0.00000   0.00000   1.71239
   D349      -0.27995   0.00000   0.00000   0.00000   0.00000  -0.27995
   D350      -2.46902   0.00000   0.00000   0.00000   0.00000  -2.46902
   D351       0.65867   0.00000   0.00000   0.00000   0.00000   0.65867
   D352      -0.75198   0.00000   0.00000   0.00000   0.00000  -0.75198
   D353      -2.88346   0.00000   0.00000   0.00000   0.00000  -2.88346
   D354       1.24866   0.00000   0.00000   0.00000   0.00000   1.24866
   D355       1.32784   0.00000   0.00000   0.00000   0.00000   1.32784
   D356      -0.80365   0.00000   0.00000   0.00000   0.00000  -0.80365
   D357      -2.95471   0.00000   0.00000   0.00000   0.00000  -2.95471
   D358      -2.91500   0.00000   0.00000   0.00000   0.00000  -2.91500
   D359       1.23670   0.00000   0.00000   0.00000   0.00000   1.23670
   D360      -0.91437   0.00000   0.00000   0.00000   0.00000  -0.91437
   D361       2.72381   0.00000   0.00000   0.00000   0.00000   2.72381
   D362      -0.42056   0.00000   0.00000   0.00000   0.00000  -0.42056
   D363       0.55267   0.00000   0.00000   0.00000   0.00000   0.55267
   D364      -2.59171   0.00000   0.00000   0.00000   0.00000  -2.59171
   D365      -1.39801   0.00000   0.00000   0.00000   0.00000  -1.39801
   D366       1.74080   0.00000   0.00000   0.00000   0.00000   1.74080
   D367      -0.74982   0.00000   0.00000   0.00000   0.00000  -0.74982
   D368      -2.85601   0.00000   0.00000   0.00000   0.00000  -2.85601
   D369       1.32361   0.00000   0.00000   0.00000   0.00000   1.32361
   D370       1.33696   0.00000   0.00000   0.00000   0.00000   1.33696
   D371      -0.76923   0.00000   0.00000   0.00000   0.00000  -0.76923
[...]
     29          1           0        1.949725  -11.340167    4.118358
     30          1           0        1.691366  -12.271637    2.628010
     31          6           0        4.281532  -12.112774    1.631935
     32          6           0        4.737856  -13.406078    1.334313
     33          1           0        4.783863  -14.135124    2.131372
     34          6           0        5.156404  -13.776427    0.060547
     35          1           0        5.501706  -14.788316   -0.120588
     36          6           0        5.123772  -12.843350   -0.969141
     37          1           0        5.429152  -13.112176   -1.974222
     38          6           0        4.699311  -11.551273   -0.687922
     39          1           0        4.681273  -10.817337   -1.488216
     40          6           0        4.291841  -11.150228    0.593666
     41          6           0        3.931888   -9.677576    0.734965
     42          1           0        3.250094   -9.409666   -0.081007
     43          1           0        3.396099   -9.466988    1.655035
     44          6           0        5.168753   -8.759477    0.652952
     45          1           0        5.713020   -8.969432   -0.272575
     46          1           0        5.862069   -8.995782    1.467150
     47          6           0        4.844203   -7.250834    0.663436
     48          1           0        4.032512   -7.063219   -0.043635
     49          6           0        6.039918   -6.417493    0.243237
     50          6           0        6.006865   -5.705830   -0.957155
     51          1           0        5.108801   -5.695973   -1.564084
     52          6           0        7.127384   -4.987987   -1.386607
     53          1           0        7.078036   -4.446448   -2.324453
     54          6           0        8.285319   -4.966460   -0.624785
     55          1           0        9.148478   -4.415719   -0.979969
     56          6           0        8.342548   -5.659713    0.600807
     57          6           0        7.208779   -6.375352    1.010730
     58          1           0        7.235103   -6.898283    1.961106
     59          6           0        9.524272   -5.666587    1.466875
     60          1           0        9.412833   -6.270548    2.363586
     61          6           0       10.682556   -5.012499    1.260805
     62          1           0       10.819064   -4.395137    0.379294
     63          6           0       11.858653   -5.019815    2.133149
     64          7           0       12.861992   -4.244776    1.738303
     65          6           0       13.992151   -4.189189    2.490631
     66          6           0       14.151498   -4.934929    3.697749
     67          6           0       15.359517   -4.824021    4.425957
     68          1           0       15.479581   -5.391697    5.342705
     69          6           0       16.376270   -4.009514    3.986207
     70          1           0       17.302056   -3.921163    4.539589
     71          6           0       16.204106   -3.277824    2.790136
     72          6           0       15.051412   -3.353472    2.050184
     73          1           0       14.922551   -2.792436    1.134301
     74         17           0       17.520333   -2.243659    2.249767
     75          6           0       13.065455   -5.756415    4.093252
     76          1           0       13.143462   -6.344400    5.002115
     77          6           0       11.934594   -5.802538    3.326853
     78          1           0       11.103955   -6.431216    3.619872
     79         16           0        4.198863   -6.787058    2.345885
     80          6           0        3.514526   -5.110004    2.034842
     81          1           0        3.722373   -4.547631    2.950603
     82          1           0        4.098978   -4.654229    1.235293
     83          6           0        2.025346   -4.992753    1.712512
     84          6           0        1.026349   -5.787676    2.518783
     85          1           0        1.410420   -6.491481    3.248824
     86          1           0        0.096167   -5.305635    2.797271
     87          6           0        1.260642   -6.119090    1.061507
     88          1           0        0.497255   -5.850867    0.340518
     89          1           0        1.783440   -7.043921    0.851471
     90          6           0        1.615844   -3.568926    1.318736
     91          1           0        2.072485   -2.858562    2.019703
     92          1           0        0.532591   -3.465130    1.398826
     93          6           0        2.023474   -3.181632   -0.112836
     94          8           0        3.277661   -3.091905   -0.349162
     95          8           0        1.117427   -2.977862   -0.949829
     96          8           0        3.917257  -13.023745    3.887437
     97          1           0        3.235570  -13.655254    3.632861
     98          6           0       13.314766    2.293030   -3.381257
     99          1           0       14.387832    2.148239   -3.534469
    100          1           0       12.980049    1.547496   -2.653147
    101          1           0       13.173565    3.280064   -2.929728
    102          6           0       12.539666    2.169604   -4.696311
    103          1           0       12.728134    1.184271   -5.140224
    104          1           0       12.922524    2.903936   -5.415800
    105          6           0       11.028308    2.367233   -4.529662
    106          1           0       10.845714    3.351578   -4.083100
    107          1           0       10.645803    1.636003   -3.806522
    108          6           0       10.250894    2.221168   -5.844786
    109          1           0       10.444681    1.223038   -6.250981
    110          1           0       10.650923    2.924550   -6.589074
    111          6           0        8.724682    2.421782   -5.730984
    112          1           0        8.371220    1.932372   -4.816454
    113          6           0        7.964505    1.809304   -6.924536
    114          1           0        8.448539    2.131890   -7.856454
    115          1           0        6.950029    2.216246   -6.943709
    116          6           0        7.867311    0.281249   -6.883434
    117          1           0        8.851118   -0.197442   -6.869595
    118          1           0        7.332546   -0.097271   -7.758971
    119          1           0        7.317019   -0.038493   -5.994634
    120          6           0        8.415842    3.914956   -5.597698
    121          1           0        8.560716    4.429551   -6.549959
    122          1           0        9.023842    4.390761   -4.829877
    123          8           0        7.014465    4.145918   -5.277206
    124          6           0        6.664973    4.198545   -3.988633
    125          8           0        7.459107    4.167481   -3.069738
    126          6           0        5.176322    4.424712   -3.811353
    127          1           0        5.003046    5.487516   -4.013431
    128          1           0        4.930059    4.262499   -2.763494
    129          6           0        4.262761    3.600530   -4.727221
    130          1           0        4.637526    3.574419   -5.749150
    131          6           0        2.825396    4.091666   -4.782458
    132          8           0        2.072250    3.880781   -5.701501
    133          8           0        2.489477    4.788225   -3.681583
    134          6           0        1.123846    5.267151   -3.603262
    135          1           0        0.448211    4.429034   -3.795642
    136          1           0        0.977173    6.004607   -4.394549
    137          6           0        0.901916    5.853516   -2.211839
    138          1           0        1.718171    6.563424   -2.022048
    139          6           0        0.967384    4.746191   -1.139377
    140          1           0        1.782535    4.061802   -1.390588
    141          1           0        0.042913    4.155674   -1.188534
    142          6           0        1.174587    5.263322    0.287934
    143          1           0        2.116829    5.814080    0.371579
    144          1           0        1.212426    4.434683    1.000528
    145          1           0        0.370821    5.931264    0.610184
    146          6           0       -0.432784    6.627440   -2.171692
    147          1           0       -0.709618    6.793574   -1.125572
    148          1           0       -1.226189    5.993749   -2.591529
    149          6           0       -0.426802    7.984906   -2.887968
    150          1           0       -0.170180    7.858702   -3.946424
    151          1           0        0.362969    8.613590   -2.456884
    152          6           0       -1.766985    8.723819   -2.790871
    153          1           0       -2.027809    8.859330   -1.734138
    154          1           0       -2.556991    8.095753   -3.220359
    155          6           0       -1.759567   10.084692   -3.493067
    156          1           0       -1.002672   10.747978   -3.062621
    157          1           0       -2.727814   10.584970   -3.404293
    158          1           0       -1.537526    9.978744   -4.559648
    159         16           0        4.275924    1.807579   -4.206049
    160          8           0        5.714349    1.537131   -3.931738
    161          8           0        3.719156    1.034065   -5.339963
    162          8           0        3.429203    1.729694   -2.976871
    163          6           0        6.221731   -0.859897   -1.683350
    164          1           0        5.579028   -1.705052   -1.925335
    165          1           0        7.263494   -1.177965   -1.653692
    166          1           0        6.088481   -0.068181   -2.418624
    167          7           0        5.855631   -0.345750   -0.311025
    168          6           0        4.395189    0.038589   -0.289917
    169          1           0        3.816310   -0.879861   -0.387005
    170          1           0        4.181805    0.719781   -1.113126
    171          1           0        4.184704    0.512814    0.669207
    172          6           0        6.067354   -1.453485    0.685256
    173          1           0        5.809812   -1.082500    1.676715
    174          1           0        7.113421   -1.755378    0.660997
    175          1           0        5.414121   -2.284112    0.419661
    176          6           0        6.738222    0.830896    0.064345
    177          1           0        7.770073    0.523073   -0.109611
    178          1           0        6.605810    0.997559    1.134969
    179          6           0        6.458528    2.115282   -0.716936
    180          1           0        5.513213    2.561332   -0.384413
    181          1           0        6.375737    1.912754   -1.786092
    182          8           0        7.542790    2.989227   -0.447855
    183          1           0        7.641043    3.556882   -1.229104
 ---------------------------------------------------------------------
 Rotational constants (GHZ):      0.0172255      0.0099531      0.0072167
 Leave Link  202 at Fri Sep 23 21:12:15 2022, MaxMem=   288358400 cpu:         0.5
 (Enter /home/software/gaussian//09.d01/l9999.exe)
 1\1\GINC-GPU-5\FOpt\RB3LYP\6-311+G(d,p)\C65H100Cl1N3O12S2\JBTHORN42\23
 -Sep-2022\0\\#p opt freq=(raman,savenormalmodes) b3lyp/6-311+g(d,p) no
 symm int=(grid=ultrafine) guess=read geom=allcheck scf=(xqc,maxconvent
 ionalcycles=2048,tight)\\Cho:Mon:Doc\\0,1\C,0.1924503204,-2.4884050077
 ,-4.0170358058\H,-0.7651588706,-2.1057966586,-4.3700469029\H,0.1606383
 503,-2.7237394622,-2.9524422158\H,0.4605202445,-3.3740191961,-4.588907
 6423\N,1.2322740186,-1.4231587515,-4.235934211\C,1.4985103731,-1.23173
 6191,-5.7026219008\H,0.5573683827,-0.987423413,-6.195577032\H,1.895959
 0309,-2.159030079,-6.1114573039\H,2.2177912674,-0.4203979397,-5.817688
 3971\C,0.7194402278,-0.1290313551,-3.6564600105\H,1.514512616,0.614365
 2059,-3.6887095512\H,0.425199928,-0.318508588,-2.6253214515\H,-0.14066
 51612,0.1940880562,-4.2428115995\C,2.5227789463,-1.7609076895,-3.49336
 07167\H,2.2572887024,-1.7257424039,-2.438710467\H,3.2251822246,-0.9696
 197169,-3.7451180626\C,3.1364928932,-3.1396983661,-3.7640070484\H,3.56
 03754337,-3.2068284905,-4.7696707335\H,2.3861992305,-3.930738017,-3.65
 08675331\O,4.196384231,-3.3249327224,-2.8487467243\H,3.8151610232,-3.3
 009723087,-1.9259017097\C,4.6360872603,-10.8077642926,3.8088462325\H,4
 .591983245,-9.824129421,3.3450965441\H,5.6755769819,-11.1420533254,3.8
 26878938\H,4.2857651825,-10.7189860367,4.8396408898\C,3.7746082147,-11
 .8414333284,3.0734552934\C,2.2803138268,-11.4690772639,3.0846965527\H,
 2.0600165063,-10.5539492124,2.5369555728\H,1.9497250653,-11.3401673172
 ,4.1183584283\H,1.6913657809,-12.2716370705,2.6280102416\C,4.281532074
 4,-12.1127739037,1.6319351353\C,4.7378561708,-13.4060777936,1.33431308
 43\H,4.7838626281,-14.1351244859,2.1313718336\C,5.1564039064,-13.77642
 65119,0.0605471844\H,5.5017056522,-14.7883159935,-0.1205879846\C,5.123
 7724199,-12.8433499612,-0.9691409794\H,5.4291521566,-13.1121755569,-1.
 9742224998\C,4.6993113736,-11.5512734984,-0.6879220489\H,4.6812725921,
 -10.8173365895,-1.4882162407\C,4.2918414107,-11.1502281677,0.593666287
 8\C,3.9318877081,-9.6775760844,0.7349645994\H,3.2500943541,-9.40966570
 86,-0.0810065812\H,3.3960992052,-9.4669880846,1.6550352503\C,5.1687529
 583,-8.7594765953,0.6529522418\H,5.7130200807,-8.9694322187,-0.2725747
 778\H,5.8620685068,-8.995782449,1.4671503972\C,4.8442025155,-7.2508335
 438,0.6634361787\H,4.0325120412,-7.0632191122,-0.0436351492\C,6.039918
 0913,-6.4174934147,0.2432373888\C,6.0068648862,-5.7058295694,-0.957154
 6232\H,5.1088009408,-5.6959725061,-1.5640844534\C,7.1273836162,-4.9879
 869998,-1.3866066943\H,7.0780364388,-4.4464478982,-2.3244532818\C,8.28
 53189755,-4.9664597046,-0.6247847744\H,9.1484778527,-4.4157193254,-0.9
 79968965\C,8.3425480518,-5.6597130116,0.6008073719\C,7.2087793556,-6.3
 753518664,1.0107303877\H,7.2351030805,-6.8982830593,1.9611063279\C,9.5
 242723095,-5.6665866267,1.466875199\H,9.4128326135,-6.270547969,2.3635
 855004\C,10.6825556718,-5.0124988869,1.2608052351\H,10.8190644968,-4.3
 951366169,0.3792935004\C,11.8586532973,-5.0198149657,2.1331491603\N,12
 .8619919483,-4.244776328,1.7383026229\C,13.9921505896,-4.1891889588,2.
 4906308539\C,14.1514978902,-4.9349285517,3.6977491655\C,15.3595166896,
 -4.8240211704,4.4259574769\H,15.4795812484,-5.3916972301,5.3427045477\
 C,16.376270233,-4.0095140096,3.9862066413\H,17.3020560762,-3.921163484
 9,4.539589119\C,16.2041057878,-3.2778242132,2.7901362493\C,15.05141195
 45,-3.3534722399,2.0501843713\H,14.9225508761,-2.7924359808,1.13430117
 57\Cl,17.5203331336,-2.2436585092,2.2497665471\C,13.0654551321,-5.7564
 145213,4.0932516339\H,13.1434620026,-6.3443997847,5.0021148157\C,11.93
 45937219,-5.8025377802,3.3268529168\H,11.1039548848,-6.4312160621,3.61
 98722577\S,4.1988630558,-6.7870579578,2.3458846599\C,3.514525741,-5.11
 00040231,2.0348424697\H,3.7223728833,-4.5476314576,2.950602976\H,4.098
 978425,-4.654229032,1.2352932025\C,2.0253455472,-4.9927525267,1.712511
 8758\C,1.0263488256,-5.7876756707,2.5187828012\H,1.4104200387,-6.49148
 08791,3.2488242137\H,0.0961669699,-5.3056345684,2.7972705182\C,1.26064
 21815,-6.1190903653,1.0615074774\H,0.4972552487,-5.850866906,0.3405175
 676\H,1.7834401312,-7.043921156,0.8514710091\C,1.6158436397,-3.5689263
 018,1.3187355227\H,2.0724852386,-2.858561892,2.0197032861\H,0.53259147
 67,-3.4651295327,1.3988260758\C,2.0234742383,-3.1816315647,-0.11283636
 31\O,3.2776607595,-3.0919051933,-0.3491617189\O,1.1174268235,-2.977861
 5099,-0.949828955\O,3.9172569152,-13.0237449725,3.8874365517\H,3.23556
 96968,-13.655254357,3.6328605455\C,13.3147662386,2.2930301216,-3.38125
 72238\H,14.3878319418,2.1482392656,-3.5344692796\H,12.9800487478,1.547
 4964069,-2.6531469685\H,13.1735651232,3.2800644933,-2.929728418\C,12.5
 39666047,2.1696035989,-4.6963113735\H,12.7281341853,1.1842711328,-5.14
 02237341\H,12.9225237108,2.9039355817,-5.415800188\C,11.0283076431,2.3
 672330869,-4.5296623248\H,10.8457144583,3.3515776201,-4.0830997017\H,1
 0.6458029161,1.6360030619,-3.8065224891\C,10.250893927,2.2211683823,-5
 .8447858391\H,10.4446810986,1.2230383877,-6.2509811816\H,10.6509234465
 ,2.9245504099,-6.5890736695\C,8.724682406,2.4217819116,-5.7309837301\H
 ,8.3712195981,1.9323715418,-4.8164539448\C,7.9645053218,1.8093035263,-
 6.924536261\H,8.448539032,2.1318896754,-7.8564543229\H,6.9500294997,2.
 2162456669,-6.9437087629\C,7.8673110919,0.2812485569,-6.8834337924\H,8
 .8511176469,-0.1974418656,-6.8695950839\H,7.3325463997,-0.0972710546,-
 7.7589707205\H,7.3170189815,-0.0384926577,-5.9946339198\C,8.4158415609
 ,3.9149558943,-5.5976980129\H,8.5607161935,4.4295505507,-6.5499585851\
 H,9.0238424678,4.3907607976,-4.829877098\O,7.0144649737,4.1459182966,-
 5.2772058334\C,6.6649727712,4.1985445176,-3.9886327275\O,7.4591068901,
 4.1674814914,-3.0697384798\C,5.1763217542,4.4247123758,-3.8113526052\H
 ,5.0030463984,5.4875162426,-4.013431143\H,4.9300588582,4.2624992905,-2
 .7634942169\C,4.2627607704,3.6005295185,-4.727221407\H,4.6375258657,3.
 574418732,-5.7491496864\C,2.825396055,4.0916657039,-4.7824576342\O,2.0
 722503551,3.8807806932,-5.7015013448\O,2.4894766463,4.7882249061,-3.68
 15833379\C,1.1238459592,5.2671512814,-3.6032615844\H,0.4482106048,4.42
 9034393,-3.7956419558\H,0.9771731235,6.0046072606,-4.3945493337\C,0.90
 19155663,5.8535155315,-2.2118388471\H,1.7181708408,6.5634243933,-2.022
 04846\C,0.9673839418,4.7461908819,-1.1393773759\H,1.7825348102,4.06180
 20331,-1.3905881794\H,0.0429129612,4.1556737538,-1.1885339194\C,1.1745
 873471,5.2633222473,0.2879336838\H,2.1168290091,5.8140801197,0.3715794
 154\H,1.2124261719,4.43468254,1.0005275402\H,0.3708207666,5.9312643676
 ,0.6101840602\C,-0.4327835763,6.6274401603,-2.1716917991\H,-0.70961826
 42,6.7935736578,-1.1255721258\H,-1.2261886092,5.9937492361,-2.59152939
 42\C,-0.4268020928,7.9849064727,-2.8879683659\H,-0.1701796187,7.858701
 7965,-3.9464238555\H,0.3629694849,8.613590283,-2.4568842841\C,-1.76698
 54851,8.7238193171,-2.7908709378\H,-2.0278088628,8.8593301723,-1.73413
 84385\H,-2.5569909541,8.0957534499,-3.2203593162\C,-1.759567411,10.084
 6917819,-3.4930674024\H,-1.0026723558,10.7479775458,-3.0626208929\H,-2
 .7278137637,10.5849697825,-3.404292765\H,-1.5375262145,9.9787440987,-4
 .5596478562\S,4.2759243373,1.8075790866,-4.2060489359\O,5.7143494104,1
 .5371310325,-3.9317384535\O,3.7191564035,1.0340651348,-5.3399634452\O,
 3.4292031154,1.7296939514,-2.9768708778\C,6.2217308049,-0.8598973078,-
 1.6833495992\H,5.5790284258,-1.7050524439,-1.9253349444\H,7.2634940185
 ,-1.1779647633,-1.6536916664\H,6.0884811833,-0.068180618,-2.4186236628
 \N,5.8556310266,-0.3457502847,-0.3110249261\C,4.3951891485,0.038588889
 6,-0.2899170586\H,3.8163104047,-0.8798609639,-0.3870054878\H,4.1818047
 567,0.7197809055,-1.1131262271\H,4.1847038231,0.5128142434,0.669206731
 3\C,6.0673535761,-1.4534853437,0.6852563232\H,5.8098120234,-1.08250034
 48,1.6767147432\H,7.1134214577,-1.7553778408,0.6609974605\H,5.41412059
 54,-2.2841124868,0.4196605902\C,6.73822225,0.8308958293,0.0643448119\H
 ,7.7700732221,0.5230729341,-0.1096108387\H,6.6058101664,0.9975593776,1
 .134969299\C,6.4585276611,2.1152824739,-0.7169356896\H,5.5132131254,2.
 5613318285,-0.3844133396\H,6.3757370463,1.9127537328,-1.7860923342\O,7
 .5427897165,2.9892269022,-0.4478553947\H,7.6410429855,3.5568823895,-1.
 2291036413\\Version=ES64L-G09RevD.01\HF=-4861.7208501\RMSD=5.860e-09\R
 MSF=1.114e-07\Dipole=-2.2928692,0.5620806,-0.2910784\Quadrupole=-29.58
 80635,5.0045416,24.5835219,1.9617651,19.7607286,11.1483428\PG=C01 [X(C
 65H100Cl1N3O12S2)]\\@


 ON A CLEAR DISK YOU CAN SEEK FOREVER.
 Job cpu time:       0 days  4 hours 40 minutes 43.4 seconds.
 File lengths (MBytes):  RWF=  82804 Int=      0 D2E=      0 Chk=    460 Scr=      2
 Normal termination of Gaussian 09 at Fri Sep 23 21:12:16 2022.
