 Entering Gaussian System, Link 0=g09
 Initial command:
 /home/software/gaussian//09.d01/l1.exe "/home/tntech.edu/jbthorn42/tmp/tmp.okCJRpvexW/Gau-764778.inp" -scrdir="/home/tntech.edu/jbthorn42/tmp/tmp.okCJRpvexW/"
 Default is to use a total of  16 processors:
                               16 via shared-memory
                                1 via Linda
 Entering Link 1 = /home/software/gaussian//09.d01/l1.exe PID=    764779.
  
 Copyright (c) 1988,1990,1992,1993,1995,1998,2003,2009,2013,
            Gaussian, Inc.  All Rights Reserved.
  
 This is part of the Gaussian(R) 09 program.  It is based on
 the Gaussian(R) 03 system (copyright 2003, Gaussian, Inc.),
 the Gaussian(R) 98 system (copyright 1998, Gaussian, Inc.),
 the Gaussian(R) 94 system (copyright 1995, Gaussian, Inc.),
 the Gaussian 92(TM) system (copyright 1992, Gaussian, Inc.),
 the Gaussian 90(TM) system (copyright 1990, Gaussian, Inc.),
 the Gaussian 88(TM) system (copyright 1988, Gaussian, Inc.),
 the Gaussian 86(TM) system (copyright 1986, Carnegie Mellon
 University), and the Gaussian 82(TM) system (copyright 1983,
 Carnegie Mellon University). Gaussian is a federally registered
 trademark of Gaussian, Inc.
  
 This software contains proprietary and confidential information,
 including trade secrets, belonging to Gaussian, Inc.
  
 This software is provided under written license and may be
 used, copied, transmitted, or stored only in accord with that
 written license.
  
 The following legend is applicable only to US Government
 contracts under FAR:
  
                    RESTRICTED RIGHTS LEGEND
  
 Use, reproduction and disclosure by the US Government is
 subject to restrictions as set forth in subparagraphs (a)
 and (c) of the Commercial Computer Software - Restricted
 Rights clause in FAR 52.227-19.
  
 Gaussian, Inc.
 340 Quinnipiac St., Bldg. 40, Wallingford CT 06492
  
  
 ---------------------------------------------------------------
 Warning -- This program may not be used in any manner that
 competes with the business of Gaussian, Inc. or will provide
 assistance to any competitor of Gaussian, Inc.  The licensee
 of this program is prohibited from giving any competitor of
 Gaussian, Inc. access to this program.  By using this program,
 the user acknowledges that Gaussian, Inc. is engaged in the
 business of creating and licensing software in the field of
 computational chemistry and represents and warrants to the
 licensee that it is not a competitor of Gaussian, Inc. and that
 it will not use this program in any manner prohibited above.
 ---------------------------------------------------------------
  

 Cite this work as:
 Gaussian 09, Revision D.01,
 M. J. Frisch, G. W. Trucks, H. B. Schlegel, G. E. Scuseria, 
 M. A. Robb, J. R. Cheeseman, G. Scalmani, V. Barone, B. Mennucci, 
 G. A. Petersson, H. Nakatsuji, M. Caricato, X. Li, H. P. Hratchian, 
 A. F. Izmaylov, J. Bloino, G. Zheng, J. L. Sonnenberg, M. Hada, 
 M. Ehara, K. Toyota, R. Fukuda, J. Hasegawa, M. Ishida, T. Nakajima, 
 Y. Honda, O. Kitao, H. Nakai, T. Vreven, J. A. Montgomery, Jr., 
 J. E. Peralta, F. Ogliaro, M. Bearpark, J. J. Heyd, E. Brothers, 
 K. N. Kudin, V. N. Staroverov, T. Keith, R. Kobayashi, J. Normand, 
 K. Raghavachari, A. Rendell, J. C. Burant, S. S. Iyengar, J. Tomasi, 
 M. Cossi, N. Rega, J. M. Millam, M. Klene, J. E. Knox, J. B. Cross, 
 V. Bakken, C. Adamo, J. Jaramillo, R. Gomperts, R. E. Stratmann, 
 O. Yazyev, A. J. Austin, R. Cammi, C. Pomelli, J. W. Ochterski, 
 R. L. Martin, K. Morokuma, V. G. Zakrzewski, G. A. Voth, 
 P. Salvador, J. J. Dannenberg, S. Dapprich, A. D. Daniels, 
 O. Farkas, J. B. Foresman, J. V. Ortiz, J. Cioslowski, 
 and D. J. Fox, Gaussian, Inc., Wallingford CT, 2013.
 
 ******************************************
 Gaussian 09:  ES64L-G09RevD.01 24-Apr-2013
                18-Aug-2022 
 ******************************************
 %chk=docusateanion.chk
 %nprocshared=16
 Will use up to   16 processors via shared memory.
 %mem=75MW
 ----------------------------------------------------------------------
 #p opt=verytight freq=(raman,savenormalmodes) b3lyp/6-311+g(d,p) nosym
 m guess=save scf=(xqc,tight)
 ----------------------------------------------------------------------
 1/7=1,14=-1,18=20,19=15,26=3,38=1/1,3;
 2/9=110,12=2,15=1,17=6,18=5,40=1/2;
 3/5=4,6=6,7=111,11=2,16=1,25=1,30=1,71=1,74=-5/1,2,3;
 4//1;
 5/5=2,8=3,13=1,32=2,38=5/2,8;
 6/7=2,8=2,9=2,10=2,28=1/1;
 7/30=1,92=1/1,2,3,16;
 1/7=1,14=-1,18=20,19=15,26=3/3(2);
 2/9=110,15=1/2;
 99//99;
 2/9=110,15=1/2;
 3/5=4,6=6,7=111,11=2,16=1,25=1,30=1,71=1,74=-5/1,2,3;
 4/5=5,16=3,69=1/1;
 5/5=2,8=3,13=1,32=2,38=5/2,8;
 7/30=1,92=1/1,2,3,16;
 1/7=1,14=-1,18=20,19=15,26=3/3(-5);
 2/9=110,15=1/2;
 6/7=2,8=2,9=2,10=2,19=2,28=1/1;
 99/9=1/99;
 Leave Link    1 at Thu Aug 18 21:13:12 2022, MaxMem=    78643200 cpu:         0.9
 (Enter /home/software/gaussian//09.d01/l101.exe)
 --------------
 Docusate Anion
 --------------
 Symbolic Z-matrix:
 Charge = -1 Multiplicity = 1
 C                     8.96473  -0.69409   1.77355 
 H                     9.82853  -0.168     2.1912 
 H                     9.30181  -1.22831   0.87903 
 H                     8.64753  -1.44445   2.50492 
 C                     7.82309   0.27269   1.44412 
 H                     8.18108   1.03289   0.73856 
 H                     7.53136   0.81531   2.35142 
 C                     6.58896  -0.42125   0.85472 
 H                     6.22645  -1.1751    1.5653 
 H                     6.88838  -0.96728  -0.04727 
 C                     5.45367   0.55626   0.52765 
 H                     5.80721   1.2696   -0.23051 
 H                     5.24138   1.14926   1.42609 
 C                     4.13119  -0.06959   0.04219 
 H                     3.76029  -0.73534   0.83046 
 C                     4.25894  -0.87659  -1.27316 
 H                     5.07088  -0.4545   -1.88001 
 H                     3.34205  -0.73857  -1.85268 
 C                     4.47564  -2.38426  -1.08871 
 H                     5.38745  -2.61077  -0.53036 
 H                     4.5442   -2.89093  -2.05673 
 H                     3.63722  -2.82826  -0.54342 
 C                     3.09886   1.05699  -0.10297 
 H                     3.36405   1.72063  -0.93027 
 H                     3.0289    1.64061   0.81569 
 O                     1.78838   0.56623  -0.43825 
 C                     0.97549   0.2404    0.5971 
 O                     1.34358   0.23611   1.74886 
 C                    -0.38259  -0.20365   0.10953 
 H                    -0.36458  -1.29939   0.07728 
 H                    -0.54707   0.14236  -0.91002 
 C                    -1.51327   0.25308   1.02934 
 H                    -1.19251   0.29476   2.0705 
 C                    -2.72684  -0.62871   0.90278 
 O                    -2.89964  -1.46674   0.04414 
 O                    -3.61602  -0.37965   1.88832 
 C                    -4.9198   -0.9789    1.77385 
 H                    -5.29128  -1.02107   2.80149 
 H                    -4.81492  -1.99371   1.38396 
 C                    -5.85957  -0.14585   0.89113 
 H                    -5.39277  -0.08663  -0.09894 
 C                    -6.01238   1.29152   1.44546 
 H                    -5.11175   1.54238   2.01161 
 H                    -6.85528   1.31456   2.15212 
 C                    -6.17483   2.379     0.37466 
 H                    -5.28193   2.41017  -0.25482 
 H                    -6.27532   3.36169   0.8461 
 H                    -7.05064   2.22227  -0.26239 
 C                    -7.183    -0.9274    0.75962 
 H                    -7.63045  -1.0363    1.75868 
 H                    -6.95248  -1.94565   0.41749 
 C                    -8.2324   -0.33204  -0.18614 
 H                    -7.77822  -0.15836  -1.16959 
 H                    -8.55085   0.64924   0.1808 
 C                    -9.46707  -1.22676  -0.35074 
 H                    -9.91457  -1.41003   0.63462 
 H                    -9.15464  -2.20835  -0.72873 
 C                    -10.5251  -0.63463  -1.28726 
 H                    -10.88216   0.33235  -0.91809 
 H                    -11.39269  -1.29504  -1.38431 
 H                    -10.1169  -0.47187  -2.28999 
 S                    -1.95564   2.05443   0.62479 
 O                    -2.80129   1.95386  -0.59407 
 O                    -2.66455   2.56712   1.81845 
 O                    -0.61451   2.64892   0.39432 
 
 NAtoms=     65 NQM=       65 NQMF=       0 NMMI=      0 NMMIF=      0
                NMic=       0 NMicF=      0.
                    Isotopes and Nuclear Properties:
 (Nuclear quadrupole moments (NQMom) in fm**2, nuclear magnetic moments (NMagM)
  in nuclear magnetons)

  Atom         1           2           3           4           5           6           7           8           9          10
 IAtWgt=          12           1           1           1          12           1           1          12           1           1
 AtmWgt=  12.0000000   1.0078250   1.0078250   1.0078250  12.0000000   1.0078250   1.0078250  12.0000000   1.0078250   1.0078250
 NucSpn=           0           1           1           1           0           1           1           0           1           1
 AtZEff=   0.0000000   0.0000000   0.0000000   0.0000000   0.0000000   0.0000000   0.0000000   0.0000000   0.0000000   0.0000000
 NQMom=    0.0000000   0.0000000   0.0000000   0.0000000   0.0000000   0.0000000   0.0000000   0.0000000   0.0000000   0.0000000
 NMagM=    0.0000000   2.7928460   2.7928460   2.7928460   0.0000000   2.7928460   2.7928460   0.0000000   2.7928460   2.7928460
 AtZNuc=   6.0000000   1.0000000   1.0000000   1.0000000   6.0000000   1.0000000   1.0000000   6.0000000   1.0000000   1.0000000

  Atom        11          12          13          14          15          16          17          18          19          20
 IAtWgt=          12           1           1          12           1          12           1           1          12           1
 AtmWgt=  12.0000000   1.0078250   1.0078250  12.0000000   1.0078250  12.0000000   1.0078250   1.0078250  12.0000000   1.0078250
 NucSpn=           0           1           1           0           1           0           1           1           0           1
 AtZEff=   0.0000000   0.0000000   0.0000000   0.0000000   0.0000000   0.0000000   0.0000000   0.0000000   0.0000000   0.0000000
 NQMom=    0.0000000   0.0000000   0.0000000   0.0000000   0.0000000   0.0000000   0.0000000   0.0000000   0.0000000   0.0000000
 NMagM=    0.0000000   2.7928460   2.7928460   0.0000000   2.7928460   0.0000000   2.7928460   2.7928460   0.0000000   2.7928460
 AtZNuc=   6.0000000   1.0000000   1.0000000   6.0000000   1.0000000   6.0000000   1.0000000   1.0000000   6.0000000   1.0000000

  Atom        21          22          23          24          25          26          27          28          29          30
 IAtWgt=           1           1          12           1           1          16          12          16          12           1
 AtmWgt=   1.0078250   1.0078250  12.0000000   1.0078250   1.0078250  15.9949146  12.0000000  15.9949146  12.0000000   1.0078250
 NucSpn=           1           1           0           1           1           0           0           0           0           1
 AtZEff=   0.0000000   0.0000000   0.0000000   0.0000000   0.0000000   0.0000000   0.0000000   0.0000000   0.0000000   0.0000000
 NQMom=    0.0000000   0.0000000   0.0000000   0.0000000   0.0000000   0.0000000   0.0000000   0.0000000   0.0000000   0.0000000
 NMagM=    2.7928460   2.7928460   0.0000000   2.7928460   2.7928460   0.0000000   0.0000000   0.0000000   0.0000000   2.7928460
 AtZNuc=   1.0000000   1.0000000   6.0000000   1.0000000   1.0000000   8.0000000   6.0000000   8.0000000   6.0000000   1.0000000

  Atom        31          32          33          34          35          36          37          38          39          40
 IAtWgt=           1          12           1          12          16          16          12           1           1          12
 AtmWgt=   1.0078250  12.0000000   1.0078250  12.0000000  15.9949146  15.9949146  12.0000000   1.0078250   1.0078250  12.0000000
 NucSpn=           1           0           1           0           0           0           0           1           1           0
 AtZEff=   0.0000000   0.0000000   0.0000000   0.0000000   0.0000000   0.0000000   0.0000000   0.0000000   0.0000000   0.0000000
 NQMom=    0.0000000   0.0000000   0.0000000   0.0000000   0.0000000   0.0000000   0.0000000   0.0000000   0.0000000   0.0000000
 NMagM=    2.7928460   0.0000000   2.7928460   0.0000000   0.0000000   0.0000000   0.0000000   2.7928460   2.7928460   0.0000000
 AtZNuc=   1.0000000   6.0000000   1.0000000   6.0000000   8.0000000   8.0000000   6.0000000   1.0000000   1.0000000   6.0000000

  Atom        41          42          43          44          45          46          47          48          49          50
 IAtWgt=           1          12           1           1          12           1           1           1          12           1
 AtmWgt=   1.0078250  12.0000000   1.0078250   1.0078250  12.0000000   1.0078250   1.0078250   1.0078250  12.0000000   1.0078250
 NucSpn=           1           0           1           1           0           1           1           1           0           1
 AtZEff=   0.0000000   0.0000000   0.0000000   0.0000000   0.0000000   0.0000000   0.0000000   0.0000000   0.0000000   0.0000000
 NQMom=    0.0000000   0.0000000   0.0000000   0.0000000   0.0000000   0.0000000   0.0000000   0.0000000   0.0000000   0.0000000
 NMagM=    2.7928460   0.0000000   2.7928460   2.7928460   0.0000000   2.7928460   2.7928460   2.7928460   0.0000000   2.7928460
 AtZNuc=   1.0000000   6.0000000   1.0000000   1.0000000   6.0000000   1.0000000   1.0000000   1.0000000   6.0000000   1.0000000

  Atom        51          52          53          54          55          56          57          58          59          60
 IAtWgt=           1          12           1           1          12           1           1          12           1           1
 AtmWgt=   1.0078250  12.0000000   1.0078250   1.0078250  12.0000000   1.0078250   1.0078250  12.0000000   1.0078250   1.0078250
 NucSpn=           1           0           1           1           0           1           1           0           1           1
 AtZEff=   0.0000000   0.0000000   0.0000000   0.0000000   0.0000000   0.0000000   0.0000000   0.0000000   0.0000000   0.0000000
 NQMom=    0.0000000   0.0000000   0.0000000   0.0000000   0.0000000   0.0000000   0.0000000   0.0000000   0.0000000   0.0000000
 NMagM=    2.7928460   0.0000000   2.7928460   2.7928460   0.0000000   2.7928460   2.7928460   0.0000000   2.7928460   2.7928460
 AtZNuc=   1.0000000   6.0000000   1.0000000   1.0000000   6.0000000   1.0000000   1.0000000   6.0000000   1.0000000   1.0000000

  Atom        61          62          63          64          65
 IAtWgt=           1          32          16          16          16
 AtmWgt=   1.0078250  31.9720718  15.9949146  15.9949146  15.9949146
 NucSpn=           1           0           0           0           0
 AtZEff=   0.0000000   0.0000000   0.0000000   0.0000000   0.0000000
 NQMom=    0.0000000   0.0000000   0.0000000   0.0000000   0.0000000
 NMagM=    2.7928460   0.0000000   0.0000000   0.0000000   0.0000000
 AtZNuc=   1.0000000  16.0000000   8.0000000   8.0000000   8.0000000
 Leave Link  101 at Thu Aug 18 21:13:13 2022, MaxMem=    78643200 cpu:         0.2
 (Enter /home/software/gaussian//09.d01/l103.exe)

 GradGradGradGradGradGradGradGradGradGradGradGradGradGradGradGradGradGrad
 Berny optimization.
 Initialization pass.
                           ----------------------------
                           !    Initial Parameters    !
                           ! (Angstroms and Degrees)  !
 --------------------------                            --------------------------
 ! Name  Definition              Value          Derivative Info.                !
 --------------------------------------------------------------------------------
 ! R1    R(1,2)                  1.0942         estimate D2E/DX2                !
 ! R2    R(1,3)                  1.0951         estimate D2E/DX2                !
 ! R3    R(1,4)                  1.0948         estimate D2E/DX2                !
 ! R4    R(1,5)                  1.5318         estimate D2E/DX2                !
 ! R5    R(5,6)                  1.0972         estimate D2E/DX2                !
 ! R6    R(5,7)                  1.0967         estimate D2E/DX2                !
 ! R7    R(5,8)                  1.5336         estimate D2E/DX2                !
 ! R8    R(8,9)                  1.0976         estimate D2E/DX2                !
 ! R9    R(8,10)                 1.0961         estimate D2E/DX2                !
 ! R10   R(8,11)                 1.5334         estimate D2E/DX2                !
 ! R11   R(11,12)                1.0994         estimate D2E/DX2                !
 ! R12   R(11,13)                1.0972         estimate D2E/DX2                !
 ! R13   R(11,14)                1.5415         estimate D2E/DX2                !
 ! R14   R(14,15)                1.0964         estimate D2E/DX2                !
 ! R15   R(14,16)                1.5485         estimate D2E/DX2                !
 ! R16   R(14,23)                1.5349         estimate D2E/DX2                !
 ! R17   R(16,17)                1.098          estimate D2E/DX2                !
 ! R18   R(16,18)                1.0934         estimate D2E/DX2                !
 ! R19   R(16,19)                1.5343         estimate D2E/DX2                !
 ! R20   R(19,20)                1.0929         estimate D2E/DX2                !
 ! R21   R(19,21)                1.0948         estimate D2E/DX2                !
 ! R22   R(19,22)                1.0943         estimate D2E/DX2                !
 ! R23   R(23,24)                1.0932         estimate D2E/DX2                !
 ! R24   R(23,25)                1.0906         estimate D2E/DX2                !
 ! R25   R(23,26)                1.439          estimate D2E/DX2                !
 ! R26   R(26,27)                1.3561         estimate D2E/DX2                !
 ! R27   R(27,28)                1.2092         estimate D2E/DX2                !
 ! R28   R(27,29)                1.5097         estimate D2E/DX2                !
 ! R29   R(29,30)                1.0964         estimate D2E/DX2                !
 ! R30   R(29,31)                1.0892         estimate D2E/DX2                !
 ! R31   R(29,32)                1.5275         estimate D2E/DX2                !
 ! R32   R(32,33)                1.0902         estimate D2E/DX2                !
 ! R33   R(32,34)                1.5054         estimate D2E/DX2                !
 ! R34   R(32,62)                1.8985         estimate D2E/DX2                !
 ! R35   R(34,35)                1.2122         estimate D2E/DX2                !
 ! R36   R(34,36)                1.3505         estimate D2E/DX2                !
 ! R37   R(36,37)                1.4395         estimate D2E/DX2                !
 ! R38   R(37,38)                1.0935         estimate D2E/DX2                !
 ! R39   R(37,39)                1.0922         estimate D2E/DX2                !
 ! R40   R(37,40)                1.535          estimate D2E/DX2                !
 ! R41   R(40,41)                1.0962         estimate D2E/DX2                !
 ! R42   R(40,42)                1.5481         estimate D2E/DX2                !
 ! R43   R(40,49)                1.5426         estimate D2E/DX2                !
 ! R44   R(42,43)                1.093          estimate D2E/DX2                !
 ! R45   R(42,44)                1.1002         estimate D2E/DX2                !
 ! R46   R(42,45)                1.5348         estimate D2E/DX2                !
 ! R47   R(45,46)                1.0929         estimate D2E/DX2                !
 ! R48   R(45,47)                1.0945         estimate D2E/DX2                !
 ! R49   R(45,48)                1.0943         estimate D2E/DX2                !
 ! R50   R(49,50)                1.1001         estimate D2E/DX2                !
 ! R51   R(49,51)                1.0987         estimate D2E/DX2                !
 ! R52   R(49,52)                1.533          estimate D2E/DX2                !
 ! R53   R(52,53)                1.0971         estimate D2E/DX2                !
 ! R54   R(52,54)                1.095          estimate D2E/DX2                !
 ! R55   R(52,55)                1.5336         estimate D2E/DX2                !
 ! R56   R(55,56)                1.0976         estimate D2E/DX2                !
 ! R57   R(55,57)                1.0973         estimate D2E/DX2                !
 ! R58   R(55,58)                1.532          estimate D2E/DX2                !
 ! R59   R(58,59)                1.0949         estimate D2E/DX2                !
 ! R60   R(58,60)                1.0947         estimate D2E/DX2                !
 ! R61   R(58,61)                1.0948         estimate D2E/DX2                !
 ! R62   R(62,63)                1.4869         estimate D2E/DX2                !
 ! R63   R(62,64)                1.4799         estimate D2E/DX2                !
 ! R64   R(62,65)                1.485          estimate D2E/DX2                !
 ! A1    A(2,1,3)              107.6579         estimate D2E/DX2                !
 ! A2    A(2,1,4)              107.6541         estimate D2E/DX2                !
 ! A3    A(2,1,5)              111.5294         estimate D2E/DX2                !
 ! A4    A(3,1,4)              107.4892         estimate D2E/DX2                !
 ! A5    A(3,1,5)              111.1997         estimate D2E/DX2                !
 ! A6    A(4,1,5)              111.1185         estimate D2E/DX2                !
 ! A7    A(1,5,6)              109.4143         estimate D2E/DX2                !
 ! A8    A(1,5,7)              109.4266         estimate D2E/DX2                !
 ! A9    A(1,5,8)              113.3791         estimate D2E/DX2                !
 ! A10   A(6,5,7)              106.0203         estimate D2E/DX2                !
 ! A11   A(6,5,8)              109.2033         estimate D2E/DX2                !
 ! A12   A(7,5,8)              109.1333         estimate D2E/DX2                !
 ! A13   A(5,8,9)              109.133          estimate D2E/DX2                !
 ! A14   A(5,8,10)             108.7748         estimate D2E/DX2                !
 ! A15   A(5,8,11)             112.912          estimate D2E/DX2                !
 ! A16   A(9,8,10)             106.3102         estimate D2E/DX2                !
 ! A17   A(9,8,11)             109.3531         estimate D2E/DX2                !
 ! A18   A(10,8,11)            110.1384         estimate D2E/DX2                !
 ! A19   A(8,11,12)            108.8217         estimate D2E/DX2                !
 ! A20   A(8,11,13)            108.2468         estimate D2E/DX2                !
 ! A21   A(8,11,14)            116.3295         estimate D2E/DX2                !
 ! A22   A(12,11,13)           106.0352         estimate D2E/DX2                !
 ! A23   A(12,11,14)           108.7919         estimate D2E/DX2                !
 ! A24   A(13,11,14)           108.1377         estimate D2E/DX2                !
 ! A25   A(11,14,15)           108.0783         estimate D2E/DX2                !
 ! A26   A(11,14,16)           114.0997         estimate D2E/DX2                !
 ! A27   A(11,14,23)           107.9868         estimate D2E/DX2                !
 ! A28   A(15,14,16)           108.7938         estimate D2E/DX2                !
 ! A29   A(15,14,23)           106.627          estimate D2E/DX2                !
 ! A30   A(16,14,23)           110.9574         estimate D2E/DX2                !
 ! A31   A(14,16,17)           109.2768         estimate D2E/DX2                !
 ! A32   A(14,16,18)           108.3762         estimate D2E/DX2                !
 ! A33   A(14,16,19)           114.9392         estimate D2E/DX2                !
 ! A34   A(17,16,18)           106.1782         estimate D2E/DX2                !
 ! A35   A(17,16,19)           109.8608         estimate D2E/DX2                !
 ! A36   A(18,16,19)           107.8296         estimate D2E/DX2                !
 ! A37   A(16,19,20)           112.5144         estimate D2E/DX2                !
 ! A38   A(16,19,21)           110.9365         estimate D2E/DX2                !
 ! A39   A(16,19,22)           110.5118         estimate D2E/DX2                !
 ! A40   A(20,19,21)           107.6724         estimate D2E/DX2                !
 ! A41   A(20,19,22)           107.4907         estimate D2E/DX2                !
 ! A42   A(21,19,22)           107.5067         estimate D2E/DX2                !
 ! A43   A(14,23,24)           110.73           estimate D2E/DX2                !
 ! A44   A(14,23,25)           110.8702         estimate D2E/DX2                !
 ! A45   A(14,23,26)           112.596          estimate D2E/DX2                !
 ! A46   A(24,23,25)           109.1561         estimate D2E/DX2                !
 ! A47   A(24,23,26)           104.5734         estimate D2E/DX2                !
 ! A48   A(25,23,26)           108.6844         estimate D2E/DX2                !
 ! A49   A(23,26,27)           116.742          estimate D2E/DX2                !
 ! A50   A(26,27,28)           123.0673         estimate D2E/DX2                !
 ! A51   A(26,27,29)           111.3051         estimate D2E/DX2                !
 ! A52   A(28,27,29)           125.4801         estimate D2E/DX2                !
 ! A53   A(27,29,30)           106.779          estimate D2E/DX2                !
 ! A54   A(27,29,31)           110.1651         estimate D2E/DX2                !
 ! A55   A(27,29,32)           112.5485         estimate D2E/DX2                !
 ! A56   A(30,29,31)           107.0041         estimate D2E/DX2                !
 ! A57   A(30,29,32)           109.1912         estimate D2E/DX2                !
 ! A58   A(31,29,32)           110.9112         estimate D2E/DX2                !
 ! A59   A(29,32,33)           111.6364         estimate D2E/DX2                !
 ! A60   A(29,32,34)           111.7752         estimate D2E/DX2                !
 ! A61   A(29,32,62)           109.1399         estimate D2E/DX2                !
 ! A62   A(33,32,34)           109.8678         estimate D2E/DX2                !
 ! A63   A(33,32,62)           103.6377         estimate D2E/DX2                !
 ! A64   A(34,32,62)           110.4884         estimate D2E/DX2                !
 ! A65   A(32,34,35)           125.4086         estimate D2E/DX2                !
 ! A66   A(32,34,36)           111.1848         estimate D2E/DX2                !
 ! A67   A(35,34,36)           123.4038         estimate D2E/DX2                !
 ! A68   A(34,36,37)           117.4855         estimate D2E/DX2                !
 ! A69   A(36,37,38)           104.4186         estimate D2E/DX2                !
 ! A70   A(36,37,39)           109.1607         estimate D2E/DX2                !
 ! A71   A(36,37,40)           111.9816         estimate D2E/DX2                !
 ! A72   A(38,37,39)           109.4063         estimate D2E/DX2                !
 ! A73   A(38,37,40)           110.6926         estimate D2E/DX2                !
 ! A74   A(39,37,40)           110.9628         estimate D2E/DX2                !
 ! A75   A(37,40,41)           106.738          estimate D2E/DX2                !
 ! A76   A(37,40,42)           111.0018         estimate D2E/DX2                !
 ! A77   A(37,40,49)           107.4157         estimate D2E/DX2                !
 ! A78   A(41,40,42)           108.3775         estimate D2E/DX2                !
 ! A79   A(41,40,49)           108.4035         estimate D2E/DX2                !
 ! A80   A(42,40,49)           114.5977         estimate D2E/DX2                !
 ! A81   A(40,42,43)           108.4961         estimate D2E/DX2                !
 ! A82   A(40,42,44)           108.9692         estimate D2E/DX2                !
 ! A83   A(40,42,45)           114.7393         estimate D2E/DX2                !
 ! A84   A(43,42,44)           107.0852         estimate D2E/DX2                !
 ! A85   A(43,42,45)           106.6182         estimate D2E/DX2                !
 ! A86   A(44,42,45)           110.6221         estimate D2E/DX2                !
 ! A87   A(42,45,46)           109.6072         estimate D2E/DX2                !
 ! A88   A(42,45,47)           110.2029         estimate D2E/DX2                !
 ! A89   A(42,45,48)           112.9173         estimate D2E/DX2                !
 ! A90   A(46,45,47)           107.3059         estimate D2E/DX2                !
 ! A91   A(46,45,48)           108.8241         estimate D2E/DX2                !
 ! A92   A(47,45,48)           107.8096         estimate D2E/DX2                !
 ! A93   A(40,49,50)           108.7653         estimate D2E/DX2                !
 ! A94   A(40,49,51)           108.4273         estimate D2E/DX2                !
 ! A95   A(40,49,52)           116.3028         estimate D2E/DX2                !
 ! A96   A(50,49,51)           106.0455         estimate D2E/DX2                !
 ! A97   A(50,49,52)           108.6807         estimate D2E/DX2                !
 ! A98   A(51,49,52)           108.1464         estimate D2E/DX2                !
 ! A99   A(49,52,53)           109.3367         estimate D2E/DX2                !
 ! A100  A(49,52,54)           109.899          estimate D2E/DX2                !
 ! A101  A(49,52,55)           113.0004         estimate D2E/DX2                !
 ! A102  A(53,52,54)           106.1958         estimate D2E/DX2                !
 ! A103  A(53,52,55)           109.2348         estimate D2E/DX2                !
 ! A104  A(54,52,55)           108.945          estimate D2E/DX2                !
 ! A105  A(52,55,56)           109.2254         estimate D2E/DX2                !
 ! A106  A(52,55,57)           109.2461         estimate D2E/DX2                !
 ! A107  A(52,55,58)           113.3345         estimate D2E/DX2                !
 ! A108  A(56,55,57)           106.0202         estimate D2E/DX2                !
 ! A109  A(56,55,58)           109.3748         estimate D2E/DX2                !
 ! A110  A(57,55,58)           109.3793         estimate D2E/DX2                !
 ! A111  A(55,58,59)           111.1274         estimate D2E/DX2                !
 ! A112  A(55,58,60)           111.6143         estimate D2E/DX2                !
 ! A113  A(55,58,61)           111.091          estimate D2E/DX2                !
 ! A114  A(59,58,60)           107.7131         estimate D2E/DX2                !
 ! A115  A(59,58,61)           107.4043         estimate D2E/DX2                !
 ! A116  A(60,58,61)           107.6985         estimate D2E/DX2                !
 ! A117  A(32,62,63)           104.0652         estimate D2E/DX2                !
 ! A118  A(32,62,64)           105.5718         estimate D2E/DX2                !
 ! A119  A(32,62,65)           101.6825         estimate D2E/DX2                !
 ! A120  A(63,62,64)           114.341          estimate D2E/DX2                !
 ! A121  A(63,62,65)           114.4247         estimate D2E/DX2                !
 ! A122  A(64,62,65)           114.7776         estimate D2E/DX2                !
 ! D1    D(2,1,5,6)             57.8227         estimate D2E/DX2                !
 ! D2    D(2,1,5,7)            -57.9358         estimate D2E/DX2                !
 ! D3    D(2,1,5,8)            179.984          estimate D2E/DX2                !
 ! D4    D(3,1,5,6)            -62.3607         estimate D2E/DX2                !
 ! D5    D(3,1,5,7)           -178.1191         estimate D2E/DX2                !
 ! D6    D(3,1,5,8)             59.8006         estimate D2E/DX2                !
 ! D7    D(4,1,5,6)            177.9459         estimate D2E/DX2                !
 ! D8    D(4,1,5,7)             62.1874         estimate D2E/DX2                !
 ! D9    D(4,1,5,8)            -59.8928         estimate D2E/DX2                !
 ! D10   D(1,5,8,9)             58.228          estimate D2E/DX2                !
 ! D11   D(1,5,8,10)           -57.36           estimate D2E/DX2                !
 ! D12   D(1,5,8,11)          -179.9392         estimate D2E/DX2                !
 ! D13   D(6,5,8,9)           -179.4934         estimate D2E/DX2                !
 ! D14   D(6,5,8,10)            64.9186         estimate D2E/DX2                !
 ! D15   D(6,5,8,11)           -57.6606         estimate D2E/DX2                !
 ! D16   D(7,5,8,9)            -64.0154         estimate D2E/DX2                !
 ! D17   D(7,5,8,10)          -179.6034         estimate D2E/DX2                !
 ! D18   D(7,5,8,11)            57.8174         estimate D2E/DX2                !
 ! D19   D(5,8,11,12)           61.7294         estimate D2E/DX2                !
 ! D20   D(5,8,11,13)          -53.0837         estimate D2E/DX2                !
 ! D21   D(5,8,11,14)         -175.0133         estimate D2E/DX2                !
 ! D22   D(9,8,11,12)         -176.5619         estimate D2E/DX2                !
 ! D23   D(9,8,11,13)           68.6251         estimate D2E/DX2                !
 ! D24   D(9,8,11,14)          -53.3045         estimate D2E/DX2                !
 ! D25   D(10,8,11,12)         -60.0847         estimate D2E/DX2                !
 ! D26   D(10,8,11,13)        -174.8978         estimate D2E/DX2                !
 ! D27   D(10,8,11,14)          63.1726         estimate D2E/DX2                !
 ! D28   D(8,11,14,15)          59.8763         estimate D2E/DX2                !
 ! D29   D(8,11,14,16)         -61.273          estimate D2E/DX2                !
 ! D30   D(8,11,14,23)         174.8654         estimate D2E/DX2                !
 ! D31   D(12,11,14,15)       -176.8508         estimate D2E/DX2                !
 ! D32   D(12,11,14,16)         61.9998         estimate D2E/DX2                !
 ! D33   D(12,11,14,23)        -61.8617         estimate D2E/DX2                !
 ! D34   D(13,11,14,15)        -62.1108         estimate D2E/DX2                !
 ! D35   D(13,11,14,16)        176.7399         estimate D2E/DX2                !
 ! D36   D(13,11,14,23)         52.8783         estimate D2E/DX2                !
 ! D37   D(11,14,16,17)        -29.3312         estimate D2E/DX2                !
 ! D38   D(11,14,16,18)       -144.6223         estimate D2E/DX2                !
 ! D39   D(11,14,16,19)         94.6943         estimate D2E/DX2                !
 ! D40   D(15,14,16,17)       -150.0828         estimate D2E/DX2                !
 ! D41   D(15,14,16,18)         94.6261         estimate D2E/DX2                !
 ! D42   D(15,14,16,19)        -26.0574         estimate D2E/DX2                !
 ! D43   D(23,14,16,17)         92.9161         estimate D2E/DX2                !
 ! D44   D(23,14,16,18)        -22.375          estimate D2E/DX2                !
 ! D45   D(23,14,16,19)       -143.0585         estimate D2E/DX2                !
 ! D46   D(11,14,23,24)         68.5332         estimate D2E/DX2                !
 ! D47   D(11,14,23,25)        -52.785          estimate D2E/DX2                !
 ! D48   D(11,14,23,26)       -174.7926         estimate D2E/DX2                !
 ! D49   D(15,14,23,24)       -175.5254         estimate D2E/DX2                !
 ! D50   D(15,14,23,25)         63.1564         estimate D2E/DX2                !
 ! D51   D(15,14,23,26)        -58.8512         estimate D2E/DX2                !
 ! D52   D(16,14,23,24)        -57.204          estimate D2E/DX2                !
 ! D53   D(16,14,23,25)       -178.5222         estimate D2E/DX2                !
 ! D54   D(16,14,23,26)         59.4702         estimate D2E/DX2                !
 ! D55   D(14,16,19,20)        -60.0185         estimate D2E/DX2                !
 ! D56   D(14,16,19,21)        179.2884         estimate D2E/DX2                !
 ! D57   D(14,16,19,22)         60.1435         estimate D2E/DX2                !
 ! D58   D(17,16,19,20)         63.6977         estimate D2E/DX2                !
 ! D59   D(17,16,19,21)        -56.9954         estimate D2E/DX2                !
 ! D60   D(17,16,19,22)       -176.1403         estimate D2E/DX2                !
 ! D61   D(18,16,19,20)        178.9987         estimate D2E/DX2                !
 ! D62   D(18,16,19,21)         58.3056         estimate D2E/DX2                !
 ! D63   D(18,16,19,22)        -60.8393         estimate D2E/DX2                !
 ! D64   D(14,23,26,27)         88.729          estimate D2E/DX2                !
 ! D65   D(24,23,26,27)       -150.9835         estimate D2E/DX2                !
 ! D66   D(25,23,26,27)        -34.5066         estimate D2E/DX2                !
 ! D67   D(23,26,27,28)         -6.5649         estimate D2E/DX2                !
 ! D68   D(23,26,27,29)        177.6332         estimate D2E/DX2                !
 ! D69   D(26,27,29,30)         96.6274         estimate D2E/DX2                !
 ! D70   D(26,27,29,31)        -19.229          estimate D2E/DX2                !
 ! D71   D(26,27,29,32)       -143.5742         estimate D2E/DX2                !
 ! D72   D(28,27,29,30)        -79.052          estimate D2E/DX2                !
 ! D73   D(28,27,29,31)        165.0916         estimate D2E/DX2                !
 ! D74   D(28,27,29,32)         40.7463         estimate D2E/DX2                !
 ! D75   D(27,29,32,33)        -32.2925         estimate D2E/DX2                !
 ! D76   D(27,29,32,34)       -155.8076         estimate D2E/DX2                !
 ! D77   D(27,29,32,62)         81.6715         estimate D2E/DX2                !
 ! D78   D(30,29,32,33)         86.0985         estimate D2E/DX2                !
 ! D79   D(30,29,32,34)        -37.4166         estimate D2E/DX2                !
 ! D80   D(30,29,32,62)       -159.9375         estimate D2E/DX2                !
 ! D81   D(31,29,32,33)       -156.2255         estimate D2E/DX2                !
 ! D82   D(31,29,32,34)         80.2594         estimate D2E/DX2                !
 ! D83   D(31,29,32,62)        -42.2615         estimate D2E/DX2                !
 ! D84   D(29,32,34,35)        -11.1168         estimate D2E/DX2                !
 ! D85   D(29,32,34,36)        168.2975         estimate D2E/DX2                !
 ! D86   D(33,32,34,35)       -135.6251         estimate D2E/DX2                !
 ! D87   D(33,32,34,36)         43.7892         estimate D2E/DX2                !
 ! D88   D(62,32,34,35)        110.6305         estimate D2E/DX2                !
 ! D89   D(62,32,34,36)        -69.9552         estimate D2E/DX2                !
 ! D90   D(29,32,62,63)         79.1476         estimate D2E/DX2                !
 ! D91   D(29,32,62,64)       -160.1277         estimate D2E/DX2                !
 ! D92   D(29,32,62,65)        -40.0024         estimate D2E/DX2                !
 ! D93   D(33,32,62,63)       -161.7863         estimate D2E/DX2                !
 ! D94   D(33,32,62,64)        -41.0616         estimate D2E/DX2                !
 ! D95   D(33,32,62,65)         79.0636         estimate D2E/DX2                !
 ! D96   D(34,32,62,63)        -44.1419         estimate D2E/DX2                !
 ! D97   D(34,32,62,64)         76.5828         estimate D2E/DX2                !
 ! D98   D(34,32,62,65)       -163.2919         estimate D2E/DX2                !
 ! D99   D(32,34,36,37)        169.7174         estimate D2E/DX2                !
 ! D100  D(35,34,36,37)        -10.8545         estimate D2E/DX2                !
 ! D101  D(34,36,37,38)        156.4108         estimate D2E/DX2                !
 ! D102  D(34,36,37,39)         39.5049         estimate D2E/DX2                !
 ! D103  D(34,36,37,40)        -83.7725         estimate D2E/DX2                !
 ! D104  D(36,37,40,41)         59.9888         estimate D2E/DX2                !
 ! D105  D(36,37,40,42)        -57.9226         estimate D2E/DX2                !
 ! D106  D(36,37,40,49)        176.083          estimate D2E/DX2                !
 ! D107  D(38,37,40,41)        176.0615         estimate D2E/DX2                !
 ! D108  D(38,37,40,42)         58.1501         estimate D2E/DX2                !
 ! D109  D(38,37,40,49)        -67.8443         estimate D2E/DX2                !
 ! D110  D(39,37,40,41)        -62.2659         estimate D2E/DX2                !
 ! D111  D(39,37,40,42)        179.8227         estimate D2E/DX2                !
 ! D112  D(39,37,40,49)         53.8283         estimate D2E/DX2                !
 ! D113  D(37,40,42,43)         26.622          estimate D2E/DX2                !
 ! D114  D(37,40,42,44)        -89.6459         estimate D2E/DX2                !
 ! D115  D(37,40,42,45)        145.7121         estimate D2E/DX2                !
 ! D116  D(41,40,42,43)        -90.289          estimate D2E/DX2                !
 ! D117  D(41,40,42,44)        153.443          estimate D2E/DX2                !
 ! D118  D(41,40,42,45)         28.8011         estimate D2E/DX2                !
 ! D119  D(49,40,42,43)        148.5154         estimate D2E/DX2                !
 ! D120  D(49,40,42,44)         32.2475         estimate D2E/DX2                !
 ! D121  D(49,40,42,45)        -92.3945         estimate D2E/DX2                !
 ! D122  D(37,40,49,50)         62.0648         estimate D2E/DX2                !
 ! D123  D(37,40,49,51)        -52.8263         estimate D2E/DX2                !
 ! D124  D(37,40,49,52)       -174.8914         estimate D2E/DX2                !
 ! D125  D(41,40,49,50)        177.0554         estimate D2E/DX2                !
 ! D126  D(41,40,49,51)         62.1643         estimate D2E/DX2                !
 ! D127  D(41,40,49,52)        -59.9008         estimate D2E/DX2                !
 ! D128  D(42,40,49,50)        -61.7633         estimate D2E/DX2                !
 ! D129  D(42,40,49,51)       -176.6544         estimate D2E/DX2                !
 ! D130  D(42,40,49,52)         61.2805         estimate D2E/DX2                !
 ! D131  D(40,42,45,46)        -62.0636         estimate D2E/DX2                !
 ! D132  D(40,42,45,47)       -179.9404         estimate D2E/DX2                !
 ! D133  D(40,42,45,48)         59.4351         estimate D2E/DX2                !
 ! D134  D(43,42,45,46)         58.0719         estimate D2E/DX2                !
 ! D135  D(43,42,45,47)        -59.8049         estimate D2E/DX2                !
 ! D136  D(43,42,45,48)        179.5707         estimate D2E/DX2                !
 ! D137  D(44,42,45,46)        174.1698         estimate D2E/DX2                !
 ! D138  D(44,42,45,47)         56.293          estimate D2E/DX2                !
 ! D139  D(44,42,45,48)        -64.3315         estimate D2E/DX2                !
 ! D140  D(40,49,52,53)         53.2868         estimate D2E/DX2                !
 ! D141  D(40,49,52,54)        -62.9056         estimate D2E/DX2                !
 ! D142  D(40,49,52,55)        175.1737         estimate D2E/DX2                !
 ! D143  D(50,49,52,53)        176.3746         estimate D2E/DX2                !
 ! D144  D(50,49,52,54)         60.1823         estimate D2E/DX2                !
 ! D145  D(50,49,52,55)        -61.7385         estimate D2E/DX2                !
 ! D146  D(51,49,52,53)        -68.9261         estimate D2E/DX2                !
 ! D147  D(51,49,52,54)        174.8815         estimate D2E/DX2                !
 ! D148  D(51,49,52,55)         52.9608         estimate D2E/DX2                !
 ! D149  D(49,52,55,56)         57.4022         estimate D2E/DX2                !
 ! D150  D(49,52,55,57)        -58.15           estimate D2E/DX2                !
 ! D151  D(49,52,55,58)        179.6157         estimate D2E/DX2                !
 ! D152  D(53,52,55,56)        179.3463         estimate D2E/DX2                !
 ! D153  D(53,52,55,57)         63.7941         estimate D2E/DX2                !
 ! D154  D(53,52,55,58)        -58.4402         estimate D2E/DX2                !
 ! D155  D(54,52,55,56)        -65.053          estimate D2E/DX2                !
 ! D156  D(54,52,55,57)        179.3948         estimate D2E/DX2                !
 ! D157  D(54,52,55,58)         57.1605         estimate D2E/DX2                !
 ! D158  D(52,55,58,59)        -59.736          estimate D2E/DX2                !
 ! D159  D(52,55,58,60)       -179.9977         estimate D2E/DX2                !
 ! D160  D(52,55,58,61)         59.784          estimate D2E/DX2                !
 ! D161  D(56,55,58,59)         62.3943         estimate D2E/DX2                !
 ! D162  D(56,55,58,60)        -57.8674         estimate D2E/DX2                !
 ! D163  D(56,55,58,61)       -178.0857         estimate D2E/DX2                !
 ! D164  D(57,55,58,59)        178.1038         estimate D2E/DX2                !
 ! D165  D(57,55,58,60)         57.8421         estimate D2E/DX2                !
 ! D166  D(57,55,58,61)        -62.3762         estimate D2E/DX2                !
 --------------------------------------------------------------------------------
 Trust Radius=3.00D-01 FncErr=1.00D-07 GrdErr=1.00D-06
 Number of steps in this run=    362 maximum allowed number of steps=    390.
 GradGradGradGradGradGradGradGradGradGradGradGradGradGradGradGradGradGrad

 Leave Link  103 at Thu Aug 18 21:13:13 2022, MaxMem=    78643200 cpu:         0.1
 (Enter /home/software/gaussian//09.d01/l202.exe)
 Symmetry turned off by external request.
 Stoichiometry    C20H37O7S(1-)
 Framework group  C1[X(C20H37O7S)]
 Deg. of freedom   189
 Full point group                 C1      NOp   1
                          Input orientation:                          
 ---------------------------------------------------------------------
 Center     Atomic      Atomic             Coordinates (Angstroms)
 Number     Number       Type             X           Y           Z
 ---------------------------------------------------------------------
      1          6           0        8.964733   -0.694090    1.773552
      2          1           0        9.828530   -0.168001    2.191196
      3          1           0        9.301810   -1.228308    0.879032
      4          1           0        8.647531   -1.444445    2.504918
      5          6           0        7.823089    0.272687    1.444119
      6          1           0        8.181083    1.032888    0.738556
      7          1           0        7.531361    0.815313    2.351417
      8          6           0        6.588965   -0.421245    0.854721
      9          1           0        6.226446   -1.175097    1.565299
     10          1           0        6.888383   -0.967276   -0.047265
     11          6           0        5.453669    0.556256    0.527651
     12          1           0        5.807211    1.269598   -0.230514
     13          1           0        5.241381    1.149255    1.426093
     14          6           0        4.131191   -0.069585    0.042189
     15          1           0        3.760290   -0.735339    0.830457
     16          6           0        4.258938   -0.876589   -1.273157
     17          1           0        5.070885   -0.454496   -1.880007
     18          1           0        3.342048   -0.738572   -1.852682
     19          6           0        4.475643   -2.384255   -1.088708
     20          1           0        5.387445   -2.610768   -0.530359
     21          1           0        4.544199   -2.890928   -2.056728
     22          1           0        3.637223   -2.828257   -0.543419
     23          6           0        3.098859    1.056991   -0.102967
     24          1           0        3.364051    1.720630   -0.930271
     25          1           0        3.028903    1.640612    0.815688
     26          8           0        1.788379    0.566234   -0.438251
     27          6           0        0.975490    0.240395    0.597100
     28          8           0        1.343579    0.236114    1.748859
     29          6           0       -0.382586   -0.203649    0.109533
     30          1           0       -0.364576   -1.299385    0.077275
     31          1           0       -0.547072    0.142357   -0.910022
     32          6           0       -1.513273    0.253078    1.029345
     33          1           0       -1.192507    0.294757    2.070504
     34          6           0       -2.726844   -0.628705    0.902784
     35          8           0       -2.899644   -1.466740    0.044143
     36          8           0       -3.616016   -0.379648    1.888321
     37          6           0       -4.919802   -0.978901    1.773850
     38          1           0       -5.291277   -1.021067    2.801486
     39          1           0       -4.814917   -1.993707    1.383964
     40          6           0       -5.859567   -0.145845    0.891130
     41          1           0       -5.392774   -0.086627   -0.098938
     42          6           0       -6.012377    1.291524    1.445457
     43          1           0       -5.111748    1.542382    2.011615
     44          1           0       -6.855279    1.314563    2.152123
     45          6           0       -6.174830    2.378997    0.374656
     46          1           0       -5.281926    2.410171   -0.254822
     47          1           0       -6.275319    3.361686    0.846100
     48          1           0       -7.050643    2.222274   -0.262393
     49          6           0       -7.183004   -0.927395    0.759624
     50          1           0       -7.630453   -1.036304    1.758679
     51          1           0       -6.952477   -1.945650    0.417493
     52          6           0       -8.232404   -0.332044   -0.186144
     53          1           0       -7.778223   -0.158359   -1.169590
     54          1           0       -8.550849    0.649244    0.180799
     55          6           0       -9.467074   -1.226763   -0.350738
     56          1           0       -9.914572   -1.410026    0.634615
     57          1           0       -9.154635   -2.208347   -0.728726
     58          6           0      -10.525102   -0.634625   -1.287263
     59          1           0      -10.882155    0.332349   -0.918093
     60          1           0      -11.392690   -1.295044   -1.384305
     61          1           0      -10.116900   -0.471868   -2.289991
     62         16           0       -1.955638    2.054429    0.624789
     63          8           0       -2.801288    1.953861   -0.594074
     64          8           0       -2.664546    2.567123    1.818450
     65          8           0       -0.614514    2.648917    0.394324
 ---------------------------------------------------------------------
 Rotational constants (GHZ):      0.4416825      0.0446844      0.0430550
 Leave Link  202 at Thu Aug 18 21:13:13 2022, MaxMem=    78643200 cpu:         0.8
 (Enter /home/software/gaussian//09.d01/l301.exe)
 Standard basis: 6-311+G(d,p) (5D, 7F)
 Ernie: Thresh=  0.10000D-02 Tol=  0.10000D-05 Strict=F.
   846 basis functions,  1318 primitive gaussians,   874 cartesian basis functions
   115 alpha electrons      115 beta electrons
       nuclear repulsion energy      2955.7423696590 Hartrees.
 IExCor=  402 DFT=T Ex+Corr=B3LYP ExCW=0 ScaHFX=  0.200000
 ScaDFX=  0.800000  0.720000  1.000000  0.810000 ScalE2=  1.000000  1.000000
 IRadAn=      0 IRanWt=     -1 IRanGd=            0 ICorTp=0 IEmpDi=  4
 NAtoms=   65 NActive=   65 NUniq=   65 SFac= 1.00D+00 NAtFMM=   60 NAOKFM=T Big=T
 Integral buffers will be    131072 words long.
 Raffenetti 2 integral format.
 Two-electron integral symmetry is turned off.
 Leave Link  301 at Thu Aug 18 21:13:13 2022, MaxMem=    78643200 cpu:         0.3
 (Enter /home/software/gaussian//09.d01/l302.exe)
 NPDir=0 NMtPBC=     1 NCelOv=     1 NCel=       1 NClECP=     1 NCelD=      1
         NCelK=      1 NCelE2=     1 NClLst=     1 CellRange=     0.0.
 One-electron integrals computed using PRISM.
 NBasis=   846 RedAO= T EigKep=  1.97D-06  NBF=   846
 NBsUse=   846 1.00D-06 EigRej= -1.00D+00 NBFU=   846
 Precomputing XC quadrature grid using
 IXCGrd= 4 IRadAn=           0 IRanWt=          -1 IRanGd=           0 AccXCQ= 0.00D+00.
 Generated NRdTot=       0 NPtTot=           0 NUsed=           0 NTot=          32
 NSgBfM=   752   753   757   757   758 MxSgAt=    65 MxSgA2=    65.
 Leave Link  302 at Thu Aug 18 21:13:24 2022, MaxMem=    78643200 cpu:       111.9
 (Enter /home/software/gaussian//09.d01/l303.exe)
 DipDrv:  MaxL=1.
 Leave Link  303 at Thu Aug 18 21:13:25 2022, MaxMem=    78643200 cpu:         3.4
 (Enter /home/software/gaussian//09.d01/l401.exe)
 ExpMin= 4.05D-02 ExpMax= 9.34D+04 ExpMxC= 3.17D+03 IAcc=2 IRadAn=         4 AccDes= 0.00D+00
 Harris functional with IExCor=  402 and IRadAn=       4 diagonalized for initial guess.
 HarFok:  IExCor=  402 AccDes= 0.00D+00 IRadAn=         4 IDoV= 1 UseB2=F ITyADJ=14
 ICtDFT=  3500011 ScaDFX=  1.000000  1.000000  1.000000  1.000000
 FoFCou: FMM=F IPFlag=           0 FMFlag=      100000 FMFlg1=        2001
         NFxFlg=           0 DoJE=T BraDBF=F KetDBF=T FulRan=T
         wScrn=  0.000000 ICntrl=     500 IOpCl=  0 I1Cent=   200000004 NGrid=           0
         NMat0=    1 NMatS0=      1 NMatT0=    0 NMatD0=    1 NMtDS0=    0 NMtDT0=    0
 Symmetry not used in FoFCou.
 Harris En= -1710.03434467396    
 JPrj=0 DoOrth=F DoCkMO=F.
 Leave Link  401 at Thu Aug 18 21:13:30 2022, MaxMem=    78643200 cpu:        59.8
 (Enter /home/software/gaussian//09.d01/l502.exe)
 Closed shell SCF:
 Using DIIS extrapolation, IDIIS=  1040.
 Two-electron integral symmetry not used.
 IVT=     2316928 IEndB=     2316928 NGot=    78643200 MDV=    77095247
 LenX=    77095247 LenY=    76330497
 Requested convergence on RMS density matrix=1.00D-08 within  64 cycles.
 Requested convergence on MAX density matrix=1.00D-06.
 Requested convergence on             energy=1.00D-06.
 No special actions if energy rises.
 Fock matrices will be formed incrementally for  20 cycles.

 Cycle   1  Pass 1  IDiag  1:
 FoFJK:  IHMeth= 1 ICntrl=       0 DoSepK=F KAlg= 0 I1Cent=   0 FoldK=F
 IRaf= 670000000 NMat=   1 IRICut=       1 DoRegI=T DoRafI=F ISym2E= 0.
 FoFCou: FMM=T IPFlag=           0 FMFlag=      100000 FMFlg1=        2001
         NFxFlg=           0 DoJE=F BraDBF=F KetDBF=F FulRan=T
         wScrn=  0.000000 ICntrl=       0 IOpCl=  0 I1Cent=           0 NGrid=           0
         NMat0=    1 NMatS0=      1 NMatT0=    0 NMatD0=    1 NMtDS0=    0 NMtDT0=    0
 Symmetry not used in FoFCou.
 FMM levels:  10  Number of levels for PrismC:   9
 E= -1708.44354945129    
 DIIS: error= 3.31D-02 at cycle   1 NSaved=   1.
 NSaved= 1 IEnMin= 1 EnMin= -1708.44354945129     IErMin= 1 ErrMin= 3.31D-02
 ErrMax= 3.31D-02  0.00D+00 EMaxC= 1.00D-01 BMatC= 1.51D+00 BMatP= 1.51D+00
 IDIUse=3 WtCom= 6.69D-01 WtEn= 3.31D-01
 Coeff-Com:  0.100D+01
 Coeff-En:   0.100D+01
 Coeff:      0.100D+01
 Gap=     0.174 Goal=   None    Shift=    0.000
 GapD=    0.174 DampG=1.000 DampE=0.500 DampFc=0.5000 IDamp=-1.
 Damping current iteration by 5.00D-01
 RMSDP=4.85D-02 MaxDP=1.41D+01              OVMax= 2.37D-01

 Cycle   2  Pass 1  IDiag  1:
 RMSU=  1.93D-02    CP:  1.49D+00
 E= -1708.78008959747     Delta-E=       -0.336540146176 Rises=F Damp=T
 DIIS: error= 1.14D-02 at cycle   2 NSaved=   2.
 NSaved= 2 IEnMin= 2 EnMin= -1708.78008959747     IErMin= 2 ErrMin= 1.14D-02
 ErrMax= 1.14D-02  0.00D+00 EMaxC= 1.00D-01 BMatC= 1.90D-01 BMatP= 1.51D+00
 IDIUse=3 WtCom= 8.86D-01 WtEn= 1.14D-01
 Coeff-Com:  0.208D+00 0.792D+00
 Coeff-En:   0.346D+00 0.654D+00
 Coeff:      0.223D+00 0.777D+00
 Gap=     0.163 Goal=   None    Shift=    0.000
 RMSDP=1.77D-02 MaxDP=5.14D+00 DE=-3.37D-01 OVMax= 2.03D-01

 Cycle   3  Pass 1  IDiag  1:
 RMSU=  5.66D-03    CP:  1.15D+00  3.07D-01
 E= -1709.55837642207     Delta-E=       -0.778286824601 Rises=F Damp=F
 DIIS: error= 1.21D-02 at cycle   3 NSaved=   3.
 NSaved= 3 IEnMin= 3 EnMin= -1709.55837642207     IErMin= 2 ErrMin= 1.14D-02
 ErrMax= 1.21D-02  0.00D+00 EMaxC= 1.00D-01 BMatC= 1.27D-01 BMatP= 1.90D-01
 IDIUse=3 WtCom= 8.79D-01 WtEn= 1.21D-01
 Coeff-Com:  0.673D-01 0.458D+00 0.475D+00
 Coeff-En:   0.000D+00 0.000D+00 0.100D+01
 Coeff:      0.591D-01 0.402D+00 0.539D+00
 Gap=     0.204 Goal=   None    Shift=    0.000
 RMSDP=6.19D-03 MaxDP=1.21D+00 DE=-7.78D-01 OVMax= 8.51D-02

 Cycle   4  Pass 1  IDiag  1:
 RMSU=  3.02D-03    CP:  1.20D+00  5.01D-01  3.62D-01
 E= -1709.63756603794     Delta-E=       -0.079189615872 Rises=F Damp=F
 DIIS: error= 7.41D-03 at cycle   4 NSaved=   4.
 NSaved= 4 IEnMin= 4 EnMin= -1709.63756603794     IErMin= 4 ErrMin= 7.41D-03
 ErrMax= 7.41D-03  0.00D+00 EMaxC= 1.00D-01 BMatC= 3.28D-02 BMatP= 1.27D-01
 IDIUse=3 WtCom= 9.26D-01 WtEn= 7.41D-02
 Coeff-Com:  0.424D-02 0.108D+00 0.348D+00 0.539D+00
 Coeff-En:   0.000D+00 0.000D+00 0.231D+00 0.769D+00
 Coeff:      0.393D-02 0.100D+00 0.339D+00 0.556D+00
 Gap=     0.164 Goal=   None    Shift=    0.000
 RMSDP=1.73D-03 MaxDP=3.32D-01 DE=-7.92D-02 OVMax= 3.84D-02

 Cycle   5  Pass 1  IDiag  1:
 RMSU=  8.22D-04    CP:  1.18D+00  4.68D-01  5.15D-01  7.50D-01
 E= -1709.66104610658     Delta-E=       -0.023480068643 Rises=F Damp=F
 DIIS: error= 2.07D-03 at cycle   5 NSaved=   5.
 NSaved= 5 IEnMin= 5 EnMin= -1709.66104610658     IErMin= 5 ErrMin= 2.07D-03
 ErrMax= 2.07D-03  0.00D+00 EMaxC= 1.00D-01 BMatC= 3.36D-03 BMatP= 3.28D-02
 IDIUse=3 WtCom= 9.79D-01 WtEn= 2.07D-02
 Coeff-Com: -0.274D-02 0.283D-01 0.174D+00 0.356D+00 0.444D+00
 Coeff-En:   0.000D+00 0.000D+00 0.000D+00 0.130D-01 0.987D+00
 Coeff:     -0.268D-02 0.277D-01 0.171D+00 0.349D+00 0.455D+00
 Gap=     0.167 Goal=   None    Shift=    0.000
 RMSDP=7.07D-04 MaxDP=2.01D-01 DE=-2.35D-02 OVMax= 1.30D-02

 Cycle   6  Pass 1  IDiag  1:
 RMSU=  3.11D-04    CP:  1.16D+00  4.47D-01  5.14D-01  7.35D-01  6.20D-01
 E= -1709.66330617691     Delta-E=       -0.002260070329 Rises=F Damp=F
 DIIS: error= 4.65D-04 at cycle   6 NSaved=   6.
 NSaved= 6 IEnMin= 6 EnMin= -1709.66330617691     IErMin= 6 ErrMin= 4.65D-04
 ErrMax= 4.65D-04  0.00D+00 EMaxC= 1.00D-01 BMatC= 2.29D-04 BMatP= 3.36D-03
 IDIUse=3 WtCom= 9.95D-01 WtEn= 4.65D-03
 Coeff-Com: -0.177D-02 0.168D-02 0.488D-01 0.118D+00 0.257D+00 0.576D+00
 Coeff-En:   0.000D+00 0.000D+00 0.000D+00 0.000D+00 0.290D-01 0.971D+00
 Coeff:     -0.177D-02 0.168D-02 0.486D-01 0.117D+00 0.256D+00 0.578D+00
 Gap=     0.165 Goal=   None    Shift=    0.000
 RMSDP=1.97D-04 MaxDP=4.10D-02 DE=-2.26D-03 OVMax= 3.27D-03

 Cycle   7  Pass 1  IDiag  1:
 RMSU=  6.52D-05    CP:  1.17D+00  4.51D-01  5.20D-01  7.41D-01  6.60D-01
                    CP:  6.33D-01
 E= -1709.66347497461     Delta-E=       -0.000168797696 Rises=F Damp=F
 DIIS: error= 8.03D-05 at cycle   7 NSaved=   7.
 NSaved= 7 IEnMin= 7 EnMin= -1709.66347497461     IErMin= 7 ErrMin= 8.03D-05
 ErrMax= 8.03D-05  0.00D+00 EMaxC= 1.00D-01 BMatC= 1.36D-05 BMatP= 2.29D-04
 IDIUse=1 WtCom= 1.00D+00 WtEn= 0.00D+00
 Coeff-Com: -0.541D-03-0.106D-02 0.134D-01 0.366D-01 0.102D+00 0.302D+00
 Coeff-Com:  0.547D+00
 Coeff:     -0.541D-03-0.106D-02 0.134D-01 0.366D-01 0.102D+00 0.302D+00
 Coeff:      0.547D+00
 Gap=     0.165 Goal=   None    Shift=    0.000
 RMSDP=3.52D-05 MaxDP=6.24D-03 DE=-1.69D-04 OVMax= 6.93D-04

 Cycle   8  Pass 1  IDiag  1:
 RMSU=  2.39D-05    CP:  1.17D+00  4.51D-01  5.19D-01  7.45D-01  6.56D-01
                    CP:  6.59D-01  6.92D-01
 E= -1709.66348561503     Delta-E=       -0.000010640421 Rises=F Damp=F
 DIIS: error= 4.45D-05 at cycle   8 NSaved=   8.
 NSaved= 8 IEnMin= 8 EnMin= -1709.66348561503     IErMin= 8 ErrMin= 4.45D-05
 ErrMax= 4.45D-05  0.00D+00 EMaxC= 1.00D-01 BMatC= 1.62D-06 BMatP= 1.36D-05
 IDIUse=1 WtCom= 1.00D+00 WtEn= 0.00D+00
 Coeff-Com: -0.116D-03-0.752D-03 0.382D-02 0.116D-01 0.394D-01 0.129D+00
 Coeff-Com:  0.313D+00 0.503D+00
 Coeff:     -0.116D-03-0.752D-03 0.382D-02 0.116D-01 0.394D-01 0.129D+00
 Coeff:      0.313D+00 0.503D+00
 Gap=     0.165 Goal=   None    Shift=    0.000
 RMSDP=1.47D-05 MaxDP=2.01D-03 DE=-1.06D-05 OVMax= 3.06D-04

 Cycle   9  Pass 1  IDiag  1:
 RMSU=  1.05D-05    CP:  1.17D+00  4.51D-01  5.19D-01  7.44D-01  6.56D-01
                    CP:  6.51D-01  7.13D-01  6.28D-01
 E= -1709.66348651455     Delta-E=       -0.000000899524 Rises=F Damp=F
 DIIS: error= 2.25D-05 at cycle   9 NSaved=   9.
 NSaved= 9 IEnMin= 9 EnMin= -1709.66348651455     IErMin= 9 ErrMin= 2.25D-05
 ErrMax= 2.25D-05  0.00D+00 EMaxC= 1.00D-01 BMatC= 4.06D-07 BMatP= 1.62D-06
 IDIUse=1 WtCom= 1.00D+00 WtEn= 0.00D+00
 Coeff-Com:  0.373D-04-0.312D-03 0.390D-04 0.786D-03 0.740D-02 0.292D-01
 Coeff-Com:  0.104D+00 0.349D+00 0.511D+00
 Coeff:      0.373D-04-0.312D-03 0.390D-04 0.786D-03 0.740D-02 0.292D-01
 Coeff:      0.104D+00 0.349D+00 0.511D+00
 Gap=     0.165 Goal=   None    Shift=    0.000
 RMSDP=7.89D-06 MaxDP=1.32D-03 DE=-9.00D-07 OVMax= 1.22D-04

 Cycle  10  Pass 1  IDiag  1:
 RMSU=  3.37D-06    CP:  1.17D+00  4.51D-01  5.19D-01  7.45D-01  6.58D-01
                    CP:  6.56D-01  7.03D-01  7.27D-01  4.99D-01
 E= -1709.66348680117     Delta-E=       -0.000000286623 Rises=F Damp=F
 DIIS: error= 3.32D-06 at cycle  10 NSaved=  10.
 NSaved=10 IEnMin=10 EnMin= -1709.66348680117     IErMin=10 ErrMin= 3.32D-06
 ErrMax= 3.32D-06  0.00D+00 EMaxC= 1.00D-01 BMatC= 1.71D-08 BMatP= 4.06D-07
 IDIUse=1 WtCom= 1.00D+00 WtEn= 0.00D+00
 Coeff-Com:  0.236D-04-0.103D-03-0.242D-03-0.423D-03 0.976D-03 0.485D-02
 Coeff-Com:  0.275D-01 0.135D+00 0.260D+00 0.572D+00
 Coeff:      0.236D-04-0.103D-03-0.242D-03-0.423D-03 0.976D-03 0.485D-02
 Coeff:      0.275D-01 0.135D+00 0.260D+00 0.572D+00
 Gap=     0.165 Goal=   None    Shift=    0.000
 RMSDP=1.73D-06 MaxDP=1.91D-04 DE=-2.87D-07 OVMax= 1.90D-05

 Cycle  11  Pass 1  IDiag  1:
 RMSU=  5.88D-07    CP:  1.17D+00  4.51D-01  5.19D-01  7.44D-01  6.58D-01
                    CP:  6.55D-01  7.08D-01  7.25D-01  5.81D-01  7.50D-01
 E= -1709.66348681473     Delta-E=       -0.000000013555 Rises=F Damp=F
 DIIS: error= 1.17D-06 at cycle  11 NSaved=  11.
 NSaved=11 IEnMin=11 EnMin= -1709.66348681473     IErMin=11 ErrMin= 1.17D-06
 ErrMax= 1.17D-06  0.00D+00 EMaxC= 1.00D-01 BMatC= 1.50D-09 BMatP= 1.71D-08
 IDIUse=1 WtCom= 1.00D+00 WtEn= 0.00D+00
 Coeff-Com:  0.771D-05-0.253D-04-0.135D-03-0.295D-03-0.732D-04 0.719D-04
 Coeff-Com:  0.600D-02 0.423D-01 0.929D-01 0.297D+00 0.562D+00
 Coeff:      0.771D-05-0.253D-04-0.135D-03-0.295D-03-0.732D-04 0.719D-04
 Coeff:      0.600D-02 0.423D-01 0.929D-01 0.297D+00 0.562D+00
 Gap=     0.165 Goal=   None    Shift=    0.000
 RMSDP=5.60D-07 MaxDP=9.02D-05 DE=-1.36D-08 OVMax= 6.35D-06

 Cycle  12  Pass 1  IDiag  1:
 RMSU=  2.90D-07    CP:  1.17D+00  4.51D-01  5.19D-01  7.44D-01  6.58D-01
                    CP:  6.55D-01  7.10D-01  7.26D-01  5.84D-01  7.67D-01
                    CP:  7.47D-01
 E= -1709.66348681590     Delta-E=       -0.000000001168 Rises=F Damp=F
 DIIS: error= 5.51D-07 at cycle  12 NSaved=  12.
 NSaved=12 IEnMin=12 EnMin= -1709.66348681590     IErMin=12 ErrMin= 5.51D-07
 ErrMax= 5.51D-07  0.00D+00 EMaxC= 1.00D-01 BMatC= 2.77D-10 BMatP= 1.50D-09
 IDIUse=1 WtCom= 1.00D+00 WtEn= 0.00D+00
 Coeff-Com:  0.137D-05-0.339D-05-0.567D-04-0.132D-03-0.142D-03-0.490D-03
 Coeff-Com:  0.716D-03 0.110D-01 0.273D-01 0.120D+00 0.347D+00 0.494D+00
 Coeff:      0.137D-05-0.339D-05-0.567D-04-0.132D-03-0.142D-03-0.490D-03
 Coeff:      0.716D-03 0.110D-01 0.273D-01 0.120D+00 0.347D+00 0.494D+00
 Gap=     0.165 Goal=   None    Shift=    0.000
 RMSDP=2.06D-07 MaxDP=2.83D-05 DE=-1.17D-09 OVMax= 3.84D-06

 Cycle  13  Pass 1  IDiag  1:
 RMSU=  1.02D-07    CP:  1.17D+00  4.51D-01  5.19D-01  7.44D-01  6.58D-01
                    CP:  6.55D-01  7.09D-01  7.28D-01  5.83D-01  7.65D-01
                    CP:  8.31D-01  5.70D-01
 E= -1709.66348681585     Delta-E=        0.000000000042 Rises=F Damp=F
 DIIS: error= 2.10D-07 at cycle  13 NSaved=  13.
 NSaved=13 IEnMin=12 EnMin= -1709.66348681590     IErMin=13 ErrMin= 2.10D-07
 ErrMax= 2.10D-07  0.00D+00 EMaxC= 1.00D-01 BMatC= 3.57D-11 BMatP= 2.77D-10
 IDIUse=1 WtCom= 1.00D+00 WtEn= 0.00D+00
 Coeff-Com: -0.609D-06 0.156D-05-0.153D-04-0.369D-04-0.699D-04-0.292D-03
 Coeff-Com: -0.344D-03 0.796D-03 0.316D-02 0.311D-01 0.133D+00 0.307D+00
 Coeff-Com:  0.527D+00
 Coeff:     -0.609D-06 0.156D-05-0.153D-04-0.369D-04-0.699D-04-0.292D-03
 Coeff:     -0.344D-03 0.796D-03 0.316D-02 0.311D-01 0.133D+00 0.307D+00
 Coeff:      0.527D+00
 Gap=     0.165 Goal=   None    Shift=    0.000
 RMSDP=8.49D-08 MaxDP=1.33D-05 DE= 4.18D-11 OVMax= 1.38D-06

 Cycle  14  Pass 1  IDiag  1:
 RMSU=  3.16D-08    CP:  1.17D+00  4.51D-01  5.19D-01  7.44D-01  6.58D-01
                    CP:  6.55D-01  7.09D-01  7.28D-01  5.82D-01  7.73D-01
                    CP:  8.03D-01  6.64D-01  5.29D-01
 E= -1709.66348681614     Delta-E=       -0.000000000281 Rises=F Damp=F
 DIIS: error= 5.42D-08 at cycle  14 NSaved=  14.
 NSaved=14 IEnMin=14 EnMin= -1709.66348681614     IErMin=14 ErrMin= 5.42D-08
 ErrMax= 5.42D-08  0.00D+00 EMaxC= 1.00D-01 BMatC= 3.75D-12 BMatP= 3.57D-11
 IDIUse=1 WtCom= 1.00D+00 WtEn= 0.00D+00
 Coeff-Com: -0.568D-06 0.127D-05-0.309D-05-0.738D-05-0.261D-04-0.118D-03
 Coeff-Com: -0.261D-03-0.727D-03-0.118D-02 0.480D-02 0.381D-01 0.124D+00
 Coeff-Com:  0.310D+00 0.525D+00
 Coeff:     -0.568D-06 0.127D-05-0.309D-05-0.738D-05-0.261D-04-0.118D-03
 Coeff:     -0.261D-03-0.727D-03-0.118D-02 0.480D-02 0.381D-01 0.124D+00
 Coeff:      0.310D+00 0.525D+00
 Gap=     0.165 Goal=   None    Shift=    0.000
 RMSDP=3.63D-08 MaxDP=6.44D-06 DE=-2.81D-10 OVMax= 3.11D-07

 Cycle  15  Pass 1  IDiag  1:
 RMSU=  2.40D-08    CP:  1.17D+00  4.51D-01  5.19D-01  7.44D-01  6.58D-01
                    CP:  6.55D-01  7.09D-01  7.28D-01  5.82D-01  7.73D-01
                    CP:  8.14D-01  6.26D-01  6.53D-01  9.02D-01
 E= -1709.66348681607     Delta-E=        0.000000000070 Rises=F Damp=F
 DIIS: error= 1.01D-08 at cycle  15 NSaved=  15.
 NSaved=15 IEnMin=14 EnMin= -1709.66348681614     IErMin=15 ErrMin= 1.01D-08
 ErrMax= 1.01D-08  0.00D+00 EMaxC= 1.00D-01 BMatC= 2.76D-13 BMatP= 3.75D-12
 IDIUse=1 WtCom= 1.00D+00 WtEn= 0.00D+00
 Coeff-Com: -0.190D-06 0.461D-06 0.689D-07 0.222D-06-0.591D-05-0.275D-04
 Coeff-Com: -0.890D-04-0.456D-03-0.956D-03-0.142D-02 0.173D-02 0.217D-01
 Coeff-Com:  0.855D-01 0.263D+00 0.631D+00
 Coeff:     -0.190D-06 0.461D-06 0.689D-07 0.222D-06-0.591D-05-0.275D-04
 Coeff:     -0.890D-04-0.456D-03-0.956D-03-0.142D-02 0.173D-02 0.217D-01
 Coeff:      0.855D-01 0.263D+00 0.631D+00
 Gap=     0.165 Goal=   None    Shift=    0.000
 RMSDP=2.68D-08 MaxDP=4.18D-06 DE= 7.00D-11 OVMax= 6.91D-08

 Cycle  16  Pass 1  IDiag  1:
 RMSU=  2.07D-08    CP:  1.17D+00  4.51D-01  5.19D-01  7.44D-01  6.58D-01
                    CP:  6.55D-01  7.09D-01  7.28D-01  5.82D-01  7.72D-01
                    CP:  8.23D-01  6.15D-01  6.82D-01  9.40D-01  1.42D+00
 E= -1709.66348681609     Delta-E=       -0.000000000025 Rises=F Damp=F
 DIIS: error= 4.43D-09 at cycle  16 NSaved=  16.
 NSaved=16 IEnMin=14 EnMin= -1709.66348681614     IErMin=16 ErrMin= 4.43D-09
 ErrMax= 4.43D-09  0.00D+00 EMaxC= 1.00D-01 BMatC= 1.56D-14 BMatP= 2.76D-13
 IDIUse=1 WtCom= 1.00D+00 WtEn= 0.00D+00
 Coeff-Com: -0.302D-07 0.959D-07 0.160D-06 0.349D-06-0.951D-06-0.469D-05
 Coeff-Com: -0.200D-04-0.129D-03-0.300D-03-0.803D-03-0.183D-02 0.471D-03
 Coeff-Com:  0.136D-01 0.703D-01 0.253D+00 0.666D+00
 Coeff:     -0.302D-07 0.959D-07 0.160D-06 0.349D-06-0.951D-06-0.469D-05
 Coeff:     -0.200D-04-0.129D-03-0.300D-03-0.803D-03-0.183D-02 0.471D-03
 Coeff:      0.136D-01 0.703D-01 0.253D+00 0.666D+00
 Gap=     0.165 Goal=   None    Shift=    0.000
 RMSDP=4.28D-08 MaxDP=6.38D-06 DE=-2.55D-11 OVMax= 1.76D-08

 Cycle  17  Pass 1  IDiag  1:
 RMSU=  2.36D-08    CP:  1.17D+00  4.51D-01  5.19D-01  7.44D-01  6.58D-01
                    CP:  6.55D-01  7.09D-01  7.29D-01  5.82D-01  7.71D-01
                    CP:  8.29D-01  5.90D-01  7.03D-01  1.13D+00  2.38D+00
                    CP:  1.89D+00
 E= -1709.66348681618     Delta-E=       -0.000000000088 Rises=F Damp=F
 DIIS: error= 5.47D-09 at cycle  17 NSaved=  17.
 NSaved=17 IEnMin=17 EnMin= -1709.66348681618     IErMin=16 ErrMin= 4.43D-09
 ErrMax= 5.47D-09  0.00D+00 EMaxC= 1.00D-01 BMatC= 1.12D-14 BMatP= 1.56D-14
 IDIUse=1 WtCom= 1.00D+00 WtEn= 0.00D+00
 Coeff-Com: -0.202D-07 0.677D-07 0.131D-06 0.276D-06-0.618D-06-0.328D-05
 Coeff-Com: -0.144D-04-0.949D-04-0.224D-03-0.615D-03-0.150D-02 0.108D-04
 Coeff-Com:  0.950D-02 0.518D-01 0.191D+00 0.531D+00 0.219D+00
 Coeff:     -0.202D-07 0.677D-07 0.131D-06 0.276D-06-0.618D-06-0.328D-05
 Coeff:     -0.144D-04-0.949D-04-0.224D-03-0.615D-03-0.150D-02 0.108D-04
 Coeff:      0.950D-02 0.518D-01 0.191D+00 0.531D+00 0.219D+00
 Gap=     0.165 Goal=   None    Shift=    0.000
 RMSDP=2.23D-08 MaxDP=3.63D-06 DE=-8.82D-11 OVMax= 5.68D-09

 Cycle  18  Pass 1  IDiag  1:
 RMSU=  7.03D-09    CP:  1.17D+00  4.51D-01  5.19D-01  7.44D-01  6.58D-01
                    CP:  6.55D-01  7.09D-01  7.29D-01  5.82D-01  7.70D-01
                    CP:  8.33D-01  5.83D-01  7.05D-01  1.23D+00  2.77D+00
                    CP:  2.48D+00  1.39D+00
 E= -1709.66348681610     Delta-E=        0.000000000077 Rises=F Damp=F
 DIIS: error= 8.05D-09 at cycle  18 NSaved=  18.
 NSaved=18 IEnMin=17 EnMin= -1709.66348681618     IErMin=16 ErrMin= 4.43D-09
 ErrMax= 8.05D-09  0.00D+00 EMaxC= 1.00D-01 BMatC= 1.41D-14 BMatP= 1.12D-14
 IDIUse=1 WtCom= 1.00D+00 WtEn= 0.00D+00
 Large coefficients: NSaved= 18 BigCof=    0.00 CofMax=   10.00 Det=-5.12D-15
 Inversion failed.  Reducing to 17 matrices.
 Large coefficients: NSaved= 17 BigCof=    0.00 CofMax=   10.00 Det=-6.03D-15
 Inversion failed.  Reducing to 16 matrices.
 Large coefficients: NSaved= 16 BigCof=    0.00 CofMax=   10.00 Det=-6.09D-15
 Inversion failed.  Reducing to 15 matrices.
 Coeff-Com:  0.299D-07-0.332D-06-0.106D-05-0.376D-05-0.445D-04-0.128D-03
 Coeff-Com: -0.493D-03-0.185D-02-0.198D-02 0.373D-02 0.406D-01 0.181D+00
 Coeff-Com:  0.619D+00 0.419D+00-0.260D+00
 Coeff:      0.299D-07-0.332D-06-0.106D-05-0.376D-05-0.445D-04-0.128D-03
 Coeff:     -0.493D-03-0.185D-02-0.198D-02 0.373D-02 0.406D-01 0.181D+00
 Coeff:      0.619D+00 0.419D+00-0.260D+00
 Gap=     0.165 Goal=   None    Shift=    0.000
 RMSDP=2.22D-08 MaxDP=3.79D-06 DE= 7.73D-11 OVMax= 6.79D-09

 Cycle  19  Pass 1  IDiag  1:
 RMSU=  8.60D-09    CP:  1.17D+00  4.51D-01  5.19D-01  7.44D-01  6.58D-01
                    CP:  6.55D-01  7.09D-01  7.29D-01  5.82D-01  7.70D-01
                    CP:  8.31D-01  5.98D-01  7.11D-01  1.16D+00  2.25D+00
                    CP:  2.12D+00  9.97D-01  3.38D-01
 E= -1709.66348681624     Delta-E=       -0.000000000135 Rises=F Damp=F
 DIIS: error= 1.05D-08 at cycle  19 NSaved=  16.
 NSaved=16 IEnMin=16 EnMin= -1709.66348681624     IErMin=13 ErrMin= 4.43D-09
 ErrMax= 1.05D-08  0.00D+00 EMaxC= 1.00D-01 BMatC= 1.64D-14 BMatP= 1.12D-14
 IDIUse=1 WtCom= 1.00D+00 WtEn= 0.00D+00
 Large coefficients: NSaved= 16 BigCof=    0.00 CofMax=   10.00 Det=-1.39D-15
 Inversion failed.  Reducing to 15 matrices.
 Coeff-Com: -0.382D-06-0.138D-05-0.441D-05-0.415D-04-0.116D-03-0.429D-03
 Coeff-Com: -0.161D-02-0.172D-02 0.319D-02 0.353D-01 0.159D+00 0.560D+00
 Coeff-Com:  0.599D+00-0.752D+00 0.400D+00
 Coeff:     -0.382D-06-0.138D-05-0.441D-05-0.415D-04-0.116D-03-0.429D-03
 Coeff:     -0.161D-02-0.172D-02 0.319D-02 0.353D-01 0.159D+00 0.560D+00
 Coeff:      0.599D+00-0.752D+00 0.400D+00
 Gap=     0.165 Goal=   None    Shift=    0.000
 RMSDP=2.54D-08 MaxDP=4.34D-06 DE=-1.35D-10 OVMax= 6.54D-09

 Cycle  20  Pass 1  IDiag  1:
 RMSU=  1.07D-08    CP:  1.17D+00  4.51D-01  5.19D-01  7.44D-01  6.58D-01
                    CP:  6.55D-01  7.09D-01  7.29D-01  5.82D-01  7.70D-01
                    CP:  8.32D-01  6.19D-01  7.12D-01  1.10D+00  1.84D+00
                    CP:  1.91D+00  7.24D-01 -6.27D-01  2.43D+00
 E= -1709.66348681603     Delta-E=        0.000000000208 Rises=F Damp=F
 DIIS: error= 8.14D-09 at cycle  20 NSaved=  16.
 NSaved=16 IEnMin=15 EnMin= -1709.66348681624     IErMin=12 ErrMin= 4.43D-09
 ErrMax= 8.14D-09  0.00D+00 EMaxC= 1.00D-01 BMatC= 1.47D-14 BMatP= 1.12D-14
 IDIUse=1 WtCom= 1.00D+00 WtEn= 0.00D+00
 Large coefficients: NSaved= 16 BigCof=    0.00 CofMax=   10.00 Det=-9.65D-16
 Inversion failed.  Reducing to 15 matrices.
 Coeff-Com: -0.324D-06-0.557D-06-0.250D-04-0.840D-04-0.310D-03-0.129D-02
 Coeff-Com: -0.122D-02 0.372D-02 0.346D-01 0.156D+00 0.584D+00 0.794D+00
 Coeff-Com: -0.106D+01 0.798D+00-0.307D+00
 Coeff:     -0.324D-06-0.557D-06-0.250D-04-0.840D-04-0.310D-03-0.129D-02
 Coeff:     -0.122D-02 0.372D-02 0.346D-01 0.156D+00 0.584D+00 0.794D+00
 Coeff:     -0.106D+01 0.798D+00-0.307D+00
 Gap=     0.165 Goal=   None    Shift=    0.000
 RMSDP=2.65D-08 MaxDP=5.04D-06 DE= 2.08D-10 OVMax= 7.15D-09

 Cycle  21  Pass 1  IDiag  1:
 Restarting incremental Fock formation.
 E= -1709.66348681610     Delta-E=       -0.000000000066 Rises=F Damp=F
 DIIS: error= 2.56D-08 at cycle  21 NSaved=  16.
 NSaved=16 IEnMin=14 EnMin= -1709.66348681624     IErMin=11 ErrMin= 4.43D-09
 ErrMax= 2.56D-08  0.00D+00 EMaxC= 1.00D-01 BMatC= 2.69D-13 BMatP= 1.12D-14
 IDIUse=1 WtCom= 1.00D+00 WtEn= 0.00D+00
 Large coefficients: NSaved= 16 BigCof=    0.00 CofMax=   10.00 Det=-9.63D-16
 Inversion failed.  Reducing to 15 matrices.
 Coeff-Com: -0.868D-07-0.268D-04-0.902D-04-0.346D-03-0.139D-02-0.137D-02
 Coeff-Com:  0.355D-02 0.344D-01 0.155D+00 0.573D+00 0.773D+00-0.104D+01
 Coeff-Com:  0.781D+00-0.298D+00 0.195D-01
 Coeff:     -0.868D-07-0.268D-04-0.902D-04-0.346D-03-0.139D-02-0.137D-02
 Coeff:      0.355D-02 0.344D-01 0.155D+00 0.573D+00 0.773D+00-0.104D+01
 Coeff:      0.781D+00-0.298D+00 0.195D-01
 Gap=     0.165 Goal=   None    Shift=    0.000
 RMSDP=2.32D-08 MaxDP=4.73D-06 DE=-6.64D-11 OVMax= 5.15D-09

 Cycle  22  Pass 1  IDiag  1:
 RMSU=  2.32D-08    CP:  1.00D+00
 E= -1709.66348681608     Delta-E=        0.000000000017 Rises=F Damp=F
 DIIS: error= 2.50D-08 at cycle  22 NSaved=  16.
 NSaved=16 IEnMin=13 EnMin= -1709.66348681624     IErMin=10 ErrMin= 4.43D-09
 ErrMax= 2.50D-08  0.00D+00 EMaxC= 1.00D-01 BMatC= 2.59D-13 BMatP= 1.12D-14
 IDIUse=1 WtCom= 1.00D+00 WtEn= 0.00D+00
 Large coefficients: NSaved= 16 BigCof=    0.00 CofMax=   10.00 Det=-6.24D-16
 Inversion failed.  Reducing to 15 matrices.
 Coeff-Com: -0.259D-04-0.881D-04-0.338D-03-0.137D-02-0.135D-02 0.355D-02
 Coeff-Com:  0.343D-01 0.154D+00 0.572D+00 0.769D+00-0.104D+01 0.783D+00
 Coeff-Com: -0.296D+00-0.140D+00 0.162D+00
 Coeff:     -0.259D-04-0.881D-04-0.338D-03-0.137D-02-0.135D-02 0.355D-02
 Coeff:      0.343D-01 0.154D+00 0.572D+00 0.769D+00-0.104D+01 0.783D+00
 Coeff:     -0.296D+00-0.140D+00 0.162D+00
 Gap=     0.165 Goal=   None    Shift=    0.000
 RMSDP=5.01D-09 MaxDP=7.60D-07 DE= 1.73D-11 OVMax= 1.05D-09

 SCF Done:  E(RB3LYP) =  -1709.66348682     A.U. after   22 cycles
            NFock= 22  Conv=0.50D-08     -V/T= 2.0036
 KE= 1.703605172113D+03 PE=-9.944580241435D+03 EE= 3.575569212847D+03
 Leave Link  502 at Thu Aug 18 21:20:07 2022, MaxMem=    78643200 cpu:      4846.5
 (Enter /home/software/gaussian//09.d01/l508.exe)
 QCSCF skips out because SCF is already converged.
 Leave Link  508 at Thu Aug 18 21:20:07 2022, MaxMem=    78643200 cpu:         0.1
 (Enter /home/software/gaussian//09.d01/l601.exe)
 Copying SCF densities to generalized density rwf, IOpCl= 0 IROHF=0.

 **********************************************************************

            Population analysis using the SCF density.

 **********************************************************************

 Alpha  occ. eigenvalues --  -88.90124 -19.06523 -19.05679 -19.00751 -19.00397
 Alpha  occ. eigenvalues --  -18.94650 -18.94612 -18.94526 -10.19943 -10.19449
 Alpha  occ. eigenvalues --  -10.13459 -10.12512 -10.11082 -10.10844 -10.10453
 Alpha  occ. eigenvalues --  -10.09992 -10.09935 -10.09729 -10.09578 -10.09375
 Alpha  occ. eigenvalues --  -10.09187 -10.08593 -10.08483 -10.08291 -10.07679
 Alpha  occ. eigenvalues --  -10.07588 -10.05422 -10.04178  -7.96009  -5.92248
 Alpha  occ. eigenvalues --   -5.92245  -5.92240  -1.00576  -1.00030  -0.96402
 Alpha  occ. eigenvalues --   -0.91961  -0.91410  -0.82943  -0.82775  -0.75527
 Alpha  occ. eigenvalues --   -0.73581  -0.72518  -0.70778  -0.69585  -0.67338
 Alpha  occ. eigenvalues --   -0.65411  -0.64361  -0.63347  -0.60357  -0.57967
 Alpha  occ. eigenvalues --   -0.55883  -0.55067  -0.52838  -0.52410  -0.50769
 Alpha  occ. eigenvalues --   -0.50122  -0.48040  -0.46262  -0.45659  -0.43315
 Alpha  occ. eigenvalues --   -0.42019  -0.41284  -0.40280  -0.39895  -0.39689
 Alpha  occ. eigenvalues --   -0.38517  -0.38129  -0.37905  -0.37169  -0.36733
 Alpha  occ. eigenvalues --   -0.36553  -0.35992  -0.35688  -0.34957  -0.34207
 Alpha  occ. eigenvalues --   -0.34009  -0.33476  -0.33072  -0.32807  -0.31815
 Alpha  occ. eigenvalues --   -0.31565  -0.30901  -0.30325  -0.30164  -0.29882
 Alpha  occ. eigenvalues --   -0.29463  -0.29001  -0.28634  -0.28585  -0.28242
 Alpha  occ. eigenvalues --   -0.27791  -0.27341  -0.27089  -0.26956  -0.26580
 Alpha  occ. eigenvalues --   -0.26059  -0.25728  -0.25713  -0.24939  -0.24693
 Alpha  occ. eigenvalues --   -0.24205  -0.23815  -0.23590  -0.22020  -0.21057
 Alpha  occ. eigenvalues --   -0.20435  -0.19586  -0.18556  -0.18487  -0.18163
 Alpha  occ. eigenvalues --   -0.17742  -0.14987  -0.14837  -0.14082  -0.10833
 Alpha virt. eigenvalues --    0.05686   0.06791   0.07030   0.07451   0.08325
 Alpha virt. eigenvalues --    0.08399   0.09227   0.09261   0.09549   0.09738
 Alpha virt. eigenvalues --    0.09958   0.10297   0.10490   0.10745   0.11275
 Alpha virt. eigenvalues --    0.11858   0.11948   0.12079   0.12184   0.12600
 Alpha virt. eigenvalues --    0.12761   0.12885   0.13256   0.13493   0.13925
 Alpha virt. eigenvalues --    0.14383   0.14839   0.14907   0.15073   0.15303
 Alpha virt. eigenvalues --    0.15704   0.15967   0.16211   0.16558   0.16760
 Alpha virt. eigenvalues --    0.17329   0.17443   0.17679   0.17984   0.18206
 Alpha virt. eigenvalues --    0.18484   0.18762   0.19209   0.19273   0.19561
 Alpha virt. eigenvalues --    0.19925   0.20153   0.20750   0.21002   0.21098
 Alpha virt. eigenvalues --    0.21345   0.21702   0.21817   0.22235   0.22293
 Alpha virt. eigenvalues --    0.22591   0.22669   0.23007   0.23327   0.23423
 Alpha virt. eigenvalues --    0.23561   0.23747   0.23975   0.24032   0.24407
 Alpha virt. eigenvalues --    0.24644   0.24754   0.25232   0.25347   0.25670
 Alpha virt. eigenvalues --    0.25715   0.25759   0.25970   0.26136   0.26487
 Alpha virt. eigenvalues --    0.26636   0.26692   0.27042   0.27207   0.27317
 Alpha virt. eigenvalues --    0.27444   0.27578   0.27870   0.28233   0.28447
 Alpha virt. eigenvalues --    0.28671   0.28941   0.29025   0.29133   0.29615
 Alpha virt. eigenvalues --    0.29648   0.29681   0.29906   0.30013   0.30130
 Alpha virt. eigenvalues --    0.30420   0.30468   0.30637   0.31020   0.31323
 Alpha virt. eigenvalues --    0.31512   0.31837   0.31932   0.32129   0.32347
 Alpha virt. eigenvalues --    0.32732   0.32848   0.33130   0.33336   0.33485
 Alpha virt. eigenvalues --    0.33589   0.33995   0.34223   0.34589   0.34987
 Alpha virt. eigenvalues --    0.35155   0.35390   0.36056   0.36252   0.36771
 Alpha virt. eigenvalues --    0.36942   0.37214   0.37459   0.37836   0.37957
 Alpha virt. eigenvalues --    0.38419   0.38647   0.38821   0.39232   0.39469
 Alpha virt. eigenvalues --    0.39636   0.39774   0.39877   0.40240   0.40462
 Alpha virt. eigenvalues --    0.40956   0.41257   0.41613   0.41873   0.42116
 Alpha virt. eigenvalues --    0.42428   0.42758   0.43055   0.43379   0.43751
 Alpha virt. eigenvalues --    0.44163   0.44494   0.44854   0.44990   0.45299
 Alpha virt. eigenvalues --    0.45428   0.46034   0.46137   0.46545   0.46872
 Alpha virt. eigenvalues --    0.46891   0.47239   0.47402   0.47772   0.48081
 Alpha virt. eigenvalues --    0.49069   0.49364   0.49640   0.49888   0.49927
 Alpha virt. eigenvalues --    0.50105   0.50388   0.50703   0.50866   0.51412
 Alpha virt. eigenvalues --    0.51575   0.52139   0.52759   0.52834   0.53303
 Alpha virt. eigenvalues --    0.53836   0.54039   0.54692   0.54806   0.55029
 Alpha virt. eigenvalues --    0.55671   0.56428   0.56646   0.57156   0.57591
[...]
 941,-0.00027989,-0.00018403,0.00016242,0.00002806,-0.00007535,0.000124
 46,-0.00004134,0.00012860,0.00152643,0.00109534,-0.00059915,-0.0025902
 6,-0.00303672,0.00028008,0.00154352,0.00118762,0.00035029,0.00032494,0
 .00061761,0.00088832,0.00034514,-0.00001892,-0.00015632,-0.00092185,-0
 .00004741,0.00025796,0.01046382,0.00357914,0.01908085,0.00221201,-0.00
 614905,0.00137355,0.00324738,0.00376375,-0.00441251,-0.00004360,-0.001
 26783,0.00237601,-0.00249642,-0.00045725,0.00215334,0.00142741,0.00080
 071,-0.00015210,-0.00022301,-0.00011483,0.00018491,-0.00008997,0.00002
 098,-0.00013688,0.00013941,-0.00036410,-0.00065975,0.00020970,0.000071
 33,0.00038024,0.00018282,-0.00036027,-0.00015864,-0.00011311,-0.000354
 10,-0.00003364,-0.00005525,0.00023594,-0.00003505,0.00012169,0.0003642
 8,0.00038519,-0.00033974,-0.00086210,-0.00033118,-0.00032022,0.0002067
 9,0.00012235,0.00030243,0.00010719,-0.00012049,-0.00004593,0.00026060,
 0.00012474,-0.00013097,-0.00006820,0.00005654,0.00007108,0.00010244,0.
 00002004,0.00002799,-0.00017095,0.00002086,0.00002799,-0.00003344,-0.0
 0001945,-0.00010010,0.00006809,0.00003843,-0.00003197,0.00008634,-0.00
 003805,0.00000167,-0.00000301,0.00000331,0.00001606,0.00003220,0.00000
 944,-0.00001620,-0.00004911,0.00000175,-0.00001547,0.00002533,0.000011
 83,-0.00003266,0.,-0.00001798,0.00000803,-0.00000382,-0.00001105,-0.00
 653532,-0.08514464,-0.01135765,0.01459197,0.05607140,-0.00000564,-0.00
 001432,-0.00001101,-0.00002143,-0.00000222,-0.00001190,-0.00000275,0.0
 0001184,0.00001328,0.00000388,-0.00000212,0.00000196,0.00000746,0.0000
 3409,-0.00001232,-0.00000752,-0.00001219,0.00000925,0.00000234,0.00000
 838,0.00001109,-0.00000731,-0.00004472,-0.00002132,0.00000482,-0.00001
 411,0.00000195,-0.00002126,0.00001928,0.00001980,-0.00000047,0.0000896
 2,-0.00002679,-0.00002777,-0.00002580,0.00002687,0.00003174,0.00002544
 ,0.00003231,-0.00002061,-0.00006095,-0.00000585,0.00004510,-0.00005995
 ,0.00003381,-0.00005802,0.00000278,-0.00007949,-0.00006903,-0.00000486
 ,0.00003530,0.00005380,-0.00000705,-0.00006167,0.00003586,0.00001281,0
 .00000708,-0.00000653,-0.00000236,-0.00000190,-0.00002223,0.00004863,0
 .00004814,-0.00001021,-0.00003479,-0.00000287,0.00059398,0.00012170,-0
 .00006912,-0.00016351,-0.00007482,0.00005248,0.00003838,0.00000884,-0.
 00001278,-0.00164611,-0.00056304,0.00126005,0.00186251,0.00009996,-0.0
 0164234,-0.00055554,0.00036365,0.00135254,0.00066053,0.00280541,-0.001
 86739,-0.00102584,0.00050405,0.00089718,-0.00191543,0.00062000,0.00076
 779,-0.00667520,-0.00183288,-0.00930349,-0.00081967,0.00371656,0.00049
 643,-0.00791425,-0.00623325,-0.00585448,0.00310035,0.00270031,0.004942
 51,0.00277095,0.00174447,0.00007815,-0.00193742,-0.00042561,-0.0002192
 7,0.00023003,-0.00001767,0.00008012,0.00026292,0.00016066,0.00009657,0
 .00043088,-0.00000046,-0.00075098,0.00005406,0.00034009,0.00015282,-0.
 00052594,0.00017982,-0.00035054,-0.00066747,-0.00030893,0.00042598,0.0
 0009868,-0.00018333,0.00036717,0.00029074,0.00018541,-0.00012882,0.001
 44919,-0.00032467,-0.00099226,-0.00041484,0.00015595,0.00024726,-0.000
 00249,-0.00002706,0.00019419,0.00005752,-0.00007548,0.00037427,-0.0001
 4549,-0.00006390,0.00009943,0.00000976,-0.00001209,-0.00004672,0.00008
 909,0.00011859,-0.00026778,0.00000995,0.00002626,0.00015798,0.00004965
 ,-0.00002507,-0.00001501,0.00004831,-0.00003646,0.00008466,-0.00005125
 ,-0.00002555,0.00004169,-0.00000205,-0.00001334,-0.00002301,0.00003183
 ,0.00002281,-0.00004343,0.00001543,0.00000330,-0.00000518,-0.00000922,
 -0.00002195,0.00001311,0.00000163,0.00000844,0.00004750,-0.16714878,-0
 .01813417,-0.32469330,0.19852219,0.02134278,0.35564731,-0.00002095,-0.
 00003817,-0.00001050,-0.00005089,-0.00000485,-0.00002092,0.00000220,0.
 00001317,0.00001237,0.00001033,0.00001386,-0.00000310,0.00001023,0.000
 07835,0.00000498,-0.00000336,-0.00000804,0.00000491,0.00000436,-0.0000
 0456,-0.00000204,-0.00002335,-0.00010640,-0.00001140,0.00000428,0.0000
 0786,-0.00000932,-0.00001493,0.00001859,0.00001597,-0.00001905,0.00016
 094,0.00004589,-0.00001249,-0.00002035,0.00001409,0.00004137,0.0000078
 2,0.00002373,-0.00002972,-0.00008304,-0.00003196,0.00003355,-0.0000201
 4,0.00001528,0.00000458,0.00000042,-0.00007268,-0.00007234,0.00000016,
 0.00004252,0.00002938,-0.00003926,-0.00010315,0.00000993,-0.00000763,0
 .00001723,-0.00004626,0.00002382,-0.00002762,-0.00001127,0.00005701,0.
 00005627,0.00001117,-0.00003770,0.00000097,0.00111636,0.00017045,0.000
 03392,-0.00004562,-0.00007410,0.00001946,0.00004477,-0.00002650,0.0000
 2013,-0.00149663,0.00027754,0.00024534,0.00218042,-0.00135493,0.000341
 95,-0.00077830,0.00049979,-0.00039235,0.00071448,0.00283201,-0.0003959
 9,-0.00099655,0.00074050,0.00038378,-0.00027800,-0.00034518,-0.0003918
 2,0.00320520,0.00517914,0.00912294,0.00021350,-0.00162214,0.00073190,-
 0.01145992,0.00143037,0.00323743,0.00343754,0.00063317,-0.00003223,0.0
 0519146,-0.00249603,-0.00278477,-0.00065917,-0.00023959,-0.00033644,0.
 00018599,0.00016445,-0.00005939,-0.00001333,-0.00031212,0.00007566,-0.
 00039589,0.00073096,0.00020327,-0.00001742,0.00000798,-0.00013130,0.00
 034320,0.00007159,0.00122433,0.00028859,0.00098606,-0.00129670,-0.0009
 0174,-0.00032397,-0.00016882,0.00022970,-0.00040696,0.00006604,0.00008
 074,0.00029011,0.00069874,0.00046776,-0.00028931,-0.00000006,-0.000568
 71,-0.00010083,-0.00027963,0.00030508,-0.00040170,-0.00011831,-0.00000
 859,0.00006073,0.00001550,-0.00018668,-0.00031997,-0.00010758,-0.00002
 454,0.00006345,0.00011280,0.00000369,0.00003427,0.00000980,0.00017553,
 -0.00007123,-0.00002139,0.00007804,0.00003381,-0.00000330,-0.00002035,
 -0.00000070,0.00001710,-0.00002622,-0.00007448,-0.00002537,-0.00002690
 ,-0.00002189,0.00002596,0.00002994,0.00000275,-0.00000515,-0.00006882,
 -0.00003318,-0.00002053,0.00001707,0.00002177,-0.00001206,-0.16895761,
 0.06312437,0.14669020,0.01572602,-0.00622348,-0.01772542,0.17070084,0.
 00001463,0.00001849,0.00001125,0.00003235,0.00000322,0.00001233,-0.000
 00688,-0.00000357,-0.00000051,-0.00000567,-0.00000333,-0.00000637,-0.0
 0000647,-0.00005750,-0.00001327,0.00001012,0.00001132,-0.00001247,-0.0
 0000301,0.00000540,0.00001881,0.00002682,0.00006010,0.00001769,-0.0000
 0452,0.00000812,-0.00001176,-0.00000869,0.00000064,0.00000286,0.000011
 08,-0.00013506,-0.00004579,0.00003121,0.00002113,-0.00003106,-0.000014
 22,0.00000076,0.00003159,0.00008351,0.00008147,0.00007534,-0.00005745,
 0.00005760,-0.00004221,-0.00003764,0.00001859,0.00000237,0.00007017,0.
 00001705,-0.00002935,-0.00002690,-0.00000178,0.00008462,-0.00004393,-0
 .00001644,0.00003676,0.00004407,-0.00001056,0.00001229,0.00000035,-0.0
 0001144,-0.00002122,0.00000412,0.00004477,-0.00003333,-0.00070797,-0.0
 0032785,-0.00026309,0.00019741,0.00005609,-0.00008193,0.00012372,-0.00
 003581,0.00014167,0.00222631,0.00137786,-0.00069634,-0.00400525,-0.003
 03314,-0.00042001,0.00162617,0.00087668,0.00075117,0.00012198,-0.00664
 200,0.00269396,0.00219514,-0.00072779,-0.00135746,-0.00007074,0.000167
 71,-0.00021764,0.01133794,-0.00407089,-0.01866709,-0.00046274,0.001533
 76,-0.00125009,0.00702687,0.00430532,0.00081267,-0.00240166,-0.0025098
 3,-0.00222102,-0.00405835,-0.00269641,0.00119873,0.00242369,0.00054771
 ,-0.00016353,-0.00030282,-0.00009048,0.00015750,-0.00035653,-0.0001706
 5,-0.00019732,0.00009412,-0.00045831,-0.00001029,0.00008790,-0.0000226
 1,0.00011373,-0.00005813,0.00008846,0.00033037,-0.00031976,-0.00105763
 ,-0.00000433,-0.00017019,0.00010557,-0.00006484,-0.00000794,-0.0001947
 8,-0.00001707,0.00004122,-0.00035120,-0.00035217,-0.00045907,0.0004230
 7,0.00011854,0.00016864,0.00023720,0.00000450,-0.00013499,0.00030056,-
 0.00015310,-0.00003032,-0.00002534,0.00003621,0.00008638,0.00013575,0.
 00004645,-0.00001183,-0.00018107,0.00003960,0.00001290,-0.00002803,-0.
 00002724,-0.00009792,0.00007267,0.00002821,-0.00003645,0.00008456,-0.0
 0005861,0.00000302,-0.00000388,0.00000551,0.00001425,0.00003493,0.0000
 1279,-0.00001643,-0.00004840,-0.00000170,-0.00001618,0.00002654,0.0000
 1064,-0.00002967,0.00000048,-0.00001747,0.00000496,-0.00000345,-0.0000
 0769,0.06709079,-0.13093922,-0.11155449,0.00262916,0.01502006,-0.00694
 853,-0.07192072,0.10983274,0.00001975,0.00003015,0.00000875,0.00004059
 ,0.00000271,0.00001323,-0.00000737,-0.00000296,0.00000077,-0.00000772,
 -0.00001556,0.00000089,0.00000203,-0.00007030,-0.00002958,0.00000106,0
 .00000286,-0.00000130,-0.00000309,0.00001444,0.00001980,0.00002662,0.0
 0009125,0.00000375,-0.00000293,-0.00001507,0.00000360,-0.00000473,-0.0
 0000264,0.00000431,0.00001795,-0.00014791,-0.00006345,0.00000495,0.000
 00776,-0.00000410,-0.00001950,0.00001645,0.00001783,0.00005104,0.00008
 104,0.00000357,-0.00002466,-0.00000434,-0.00001212,-0.00004356,0.00000
 034,0.00001722,0.00004466,0.00000161,-0.00002748,-0.00000328,0.0000281
 7,0.00008413,-0.00000666,0.00000631,0.00000137,0.00005206,-0.00002576,
 0.00002356,-0.00000417,-0.00002292,-0.00002326,-0.00001493,0.00002880,
 -0.00001733,-0.00088523,-0.00017881,-0.00016088,0.00002165,0.00004493,
 -0.00000470,0.00002147,0.00003281,0.00000111,0.00111872,-0.00023905,0.
 00044420,-0.00234367,0.00042837,-0.00194615,0.00113475,0.00017520,0.00
 169344,0.00044736,-0.00173613,0.00108674,0.00074584,-0.00055284,-0.000
 14087,-0.00059248,0.00069691,0.00072854,-0.00004932,0.00261220,-0.0011
 8915,0.00138141,-0.00267489,0.00161224,0.00751493,0.00007680,-0.005158
 51,-0.00157146,0.00008519,0.00196023,-0.00309364,0.00177104,0.00367109
 ,-0.00017769,0.00041734,-0.00001258,-0.00022097,-0.00019856,0.00017258
 ,0.00018114,0.00023452,-0.00001544,0.00044718,-0.00039372,-0.00042708,
 0.00016250,0.00024376,0.00031121,-0.00051389,0.00013396,-0.00056991,-0
 .00098475,-0.00082396,-0.00027076,0.00015036,-0.00001589,0.00026377,0.
 00041387,0.00020334,-0.00044356,0.00068112,-0.00029681,-0.00003744,-0.
 00036423,0.00027145,0.00005141,0.00000616,-0.00004259,0.00039180,-0.00
 011027,0.00026505,0.00019101,-0.00011826,-0.00007950,0.00007761,0.0001
 1690,0.00015398,0.00003222,0.00001489,-0.00003505,-0.00013256,0.000009
 02,-0.00000228,0.00008005,-0.00006145,0.00003134,-0.00000796,-0.000003
 72,-0.00000899,0.00001190,-0.00002384,-0.00001688,0.00002406,0.0000102
 4,0.00002853,0.00000166,0.00001777,-0.00000191,-0.00002978,-0.00000826
 ,0.00001211,0.00000030,0.00000614,-0.00000181,0.00000529,-0.00000392,-
 0.00000436,0.00002871,0.14541638,-0.10611101,-0.32734195,0.01322801,-0
 .01783510,-0.03011660,-0.17319133,0.13009780,0.35478005,-0.00003026,-0
 .00006514,-0.00001368,-0.00007793,-0.00000461,-0.00003230,-0.00000201,
 0.00002391,0.00002487,0.00001576,0.00002724,-0.00001326,0.00000481,0.0
 0012445,0.00000942,0.00000482,-0.00000624,-0.00000176,0.00000864,-0.00
 000633,0.00001277,-0.00002217,-0.00019571,0.00000034,0.00000466,0.0000
 2812,-0.00003559,-0.00004767,0.00004663,0.00003820,-0.00000947,0.00024
 840,0.00002623,0.00000526,-0.00002388,-0.00000205,0.00008333,0.0000180
 7,0.00008925,0.00005683,-0.00012218,0.00015784,0.00001550,0.00001355,-
 0.00002238,-0.00007579,0.00004419,-0.00020194,-0.00008973,0.00003104,0
 .00006859,0.00003716,-0.00010316,-0.00013521,-0.00004316,-0.00004687,0
 .00011045,-0.00004364,0.00004526,-0.00004709,-0.00003233,0.00012846,0.
 00010462,0.00002923,-0.00002395,-0.00005082,0.00217259,-0.00004781,-0.
 00044204,0.00015003,-0.00010751,-0.00005103,0.00039039,-0.00015138,0.0
 0029586,-0.00086249,0.00387112,-0.00010891,-0.00058934,-0.01037883,-0.
 00015324,0.00031994,0.00430210,-0.00044843,-0.00050878,0.00143170,0.00
 086146,0.00115613,0.00035765,-0.00074682,-0.00030853,-0.00047599,-0.00
 101452,-0.00669312,-0.00024535,0.00270449,-0.00014032,-0.00168389,0.00
 063321,0.00261960,0.00267669,0.00178460,0.00023848,-0.00204455,-0.0012
 0433,-0.00025499,-0.00154029,-0.00006742,0.00087438,0.00072243,-0.0004
 1071,-0.00008525,0.00004364,0.00016073,-0.00008699,-0.00024455,-0.0001
 0626,-0.00011103,0.00006645,-0.00014938,0.00016466,0.00018972,0.000178
 42,0.00037132,0.00008516,0.00009476,0.00057180,0.00025636,-0.00046635,
 -0.00044054,-0.00014529,0.00015921,0.00018997,-0.00001435,-0.00024117,
 0.00073048,-0.00029057,0.00032420,-0.00003346,0.00006138,0.00016195,-0
 .00046619,-0.00002063,-0.00008110,0.00011905,0.00009467,-0.00000901,-0
 .00012050,-0.00001235,0.00008799,-0.00003329,-0.00015182,-0.00006523,-
 0.00004320,-0.00009567,0.00007075,0.00002174,0.00002464,0.00003858,0.0
 0008669,-0.00000770,-0.00001361,0.00006363,0.00011544,-0.00004211,-0.0
 0003351,-0.00001179,0.00003254,-0.00001030,-0.00005444,-0.00002239,-0.
 00004200,-0.00006141,0.00001986,0.00002329,0.00002643,0.00000132,-0.00
 010962,-0.00004368,-0.00003532,0.00002606,0.00002448,-0.00000922,-0.37
 331090,-0.13105167,0.05047027,-0.02204438,-0.01647215,-0.00123704,-0.0
 1766179,-0.01194990,0.01095245,0.41390853,0.00001357,0.00001200,0.0000
 1234,0.00002316,0.00000083,0.00000912,-0.00000825,-0.00000031,0.000003
 23,-0.00000335,0.00000464,-0.00001164,-0.00000422,-0.00005373,-0.00000
 925,0.00001779,0.00001489,-0.00001957,-0.00000349,0.00000272,0.0000248
 0,0.00004348,0.00005371,0.00002576,-0.00000871,0.00002319,-0.00002376,
 -0.00001812,0.00000697,0.00000726,0.00001879,-0.00017574,-0.00004108,0
 .00005984,0.00003212,-0.00005319,-0.00000962,-0.00000690,0.00006143,0.
 00022723,0.00016581,0.00012557,-0.00010998,0.00013074,-0.00007602,-0.0
 0006826,0.00004953,-0.00001261,0.00008997,0.00002110,-0.00003015,-0.00
 003888,-0.00001417,0.00009322,-0.00005657,-0.00002465,0.00005535,0.000
 03704,-0.00000498,0.00000461,0.00000047,0.00000367,-0.00001246,0.00001
 436,0.00005292,-0.00003872,-0.00109919,-0.00074071,-0.00029199,0.00036
 497,0.00005650,-0.00020145,0.00025130,-0.00009140,0.00031263,0.0028755
 1,0.00157706,-0.00118057,-0.00600913,-0.00231713,0.00058002,0.00243901
 ,0.00052539,0.00033751,-0.00112329,-0.00075332,0.00024721,0.00002376,-
 0.00058196,0.00032351,0.00039643,-0.00030174,0.00044150,-0.02779321,-0
 .01449582,0.00480566,-0.00010498,-0.00032561,0.00010300,0.01409854,-0.
 00195469,0.00317554,-0.00437213,-0.00244448,-0.00296774,-0.00529780,-0
 .00010591,0.00205376,0.00160063,0.00113785,-0.00011202,-0.00031364,-0.
 00006610,0.00016390,-0.00005467,-0.00004916,-0.00019591,-0.00019948,-0
 .00039763,0.00008080,0.00010062,-0.00004498,0.00013705,0.00000298,-0.0
 0011101,-0.00015972,-0.00008334,-0.00026137,-0.00002058,-0.00007364,0.
 00006556,0.00006181,0.00002424,0.00004668,-0.00005332,0.00013882,-0.00
 017308,0.00002326,-0.00015313,0.00019039,0.00007832,-0.00006200,0.0000
 2702,-0.00000276,-0.00008524,0.00030569,-0.00015753,-0.00004313,-0.000
 01290,0.00004638,0.00007435,0.00006746,0.00002105,-0.00005342,-0.00017
 081,0.00006591,0.00001806,-0.00001286,-0.00001543,-0.00004687,0.000049
 30,0.00001040,-0.00000424,0.00009257,-0.00006531,-0.00000485,-0.000004
 26,0.00001005,0.00000588,0.00001066,0.00000492,-0.00002946,-0.00005419
 ,0.00001145,-0.00000573,0.00002755,0.00000903,-0.00005290,-0.00001129,
 -0.00002428,0.00001244,0.00000325,-0.00001317,-0.14038721,-0.14581109,
 0.02294012,-0.00725517,0.01497842,0.00015175,0.00929190,0.01828208,-0.
 00677089,0.16277213,0.13355568,0.00000631,0.00000969,-0.00000038,0.000
 01026,-0.00000024,0.00000169,-0.00000318,0.00000249,0.00000344,-0.0000
 0177,-0.00000900,0.00000296,0.00000633,-0.00001909,-0.00001815,-0.0000
 0545,-0.00000453,0.00000542,0.00000098,0.00000884,0.00001084,0.0000041
 9,0.00002801,0.00000280,0.00000177,-0.00001788,0.00000754,-0.00000717,
 0.00000529,0.00000572,0.00002790,-0.00003778,-0.00004668,-0.00002285,-
 0.00001153,0.00001870,0.00000568,0.00002153,0.00001700,0.00002109,0.00
 002769,0.00002137,0.00003250,-0.00006726,0.00002556,-0.00004331,0.0000
 0221,-0.00002166,-0.00001464,-0.00000691,0.00000375,0.00002257,0.00003
 080,0.00001802,0.00002411,0.00001871,-0.00000485,0.00001732,-0.0000192
 4,0.00001258,-0.00000560,0.00000135,0.00000122,-0.00001305,-0.00001146
 ,0.00000342,-0.00039269,-0.00004017,-0.00024900,-0.00017117,0.00000733
 ,0.00008084,0.00009049,0.00005932,-0.00004769,-0.00036629,-0.00135924,
 0.00168407,0.00057596,0.00106825,-0.00478719,-0.00027059,0.00095854,0.
 00241053,-0.00025058,-0.00002058,-0.00105013,-0.00027940,-0.00014765,0
 .00082888,-0.00035128,0.00096151,0.00114773,0.00942696,0.00457827,0.00
 519061,0.00052760,-0.00276345,0.00096598,-0.00425694,0.00054876,-0.002
 27982,0.00160886,0.00148419,0.00234790,0.00090876,0.00056181,0.0002764
 3,-0.00071238,-0.00024908,-0.00005969,0.00006796,-0.00004196,0.0000207
 5,0.00007845,0.00009623,0.00007079,0.00021253,-0.00005542,-0.00027637,
 0.00005605,0.00017697,0.00010788,-0.00015894,0.00011795,-0.00031135,-0
 .00038536,-0.00027880,0.00020245,0.00013244,-0.00002343,0.00013910,0.0
 0006324,0.00013245,-0.00023090,0.00033340,-0.00021587,-0.00009866,-0.0
 0020406,0.00008219,0.00006849,-0.00000771,-0.00000120,0.00016713,-0.00
 000738,-0.00000559,0.00015407,-0.00005005,-0.00003285,0.00002523,0.000
 01628,0.00002857,-0.00000008,0.00002923,0.00004503,-0.00009343,0.00000
 119,0.00000776,0.00004916,-0.00000091,-0.00000468,-0.00000868,0.000003
 84,-0.00002786,0.00003315,-0.00001223,-0.00000704,0.00000996,0.0000008
 7,0.00000457,-0.00000415,0.00001708,0.00001502,-0.00001834,0.00000068,
 -0.00000254,-0.00000233,0.00001449,-0.00000035,0.00000932,-0.00000467,
 -0.00000137,0.00001810,0.05297553,0.02365901,-0.09155208,-0.03159190,-
 0.01330252,0.00851965,0.03426223,0.00809437,0.00036050,-0.06199350,-0.
 02405810,0.07611085\\0.00000006,-0.00000081,-0.00000073,-0.00000005,-0
 .00000138,0.00000018,0.00000016,0.00000075,-0.00000162,0.00000014,-0.0
 0000209,-0.00000201,-0.00000009,-0.00000043,0.00000085,-0.00000018,0.0
 0000081,0.00000214,-0.00000020,-0.00000200,0.00000176,0.00000004,0.000
 00037,-0.00000036,0.00000013,-0.00000088,-0.00000164,0.00000016,0.0000
 0194,-0.00000126,-0.00000011,0.00000074,0.00000125,-0.00000018,0.00000
 208,0.00000246,-0.00000022,-0.00000080,0.00000224,0.00000002,0.0000013
 6,0.00000014,0.00000009,-0.00000003,-0.00000098,0.00000018,0.00000359,
 -0.00000119,0.00000014,0.00000474,-0.00000047,0.00000018,0.00000443,-0
 .00000100,0.00000042,0.00000332,-0.00000373,0.00000042,0.00000252,-0.0
 0000408,0.00000052,0.00000495,-0.00000458,0.00000046,0.00000227,-0.000
 00451,-0.00000019,0.00000145,0.00000200,-0.00000022,0.00000288,0.00000
 314,-0.00000027,-0.00000011,0.00000299,-0.00000003,0.00000181,0.000001
 13,-0.00000005,-0.00000006,0.00000061,-0.00000010,-0.00000194,0.000000
 55,0.00000003,0.00000056,-0.00000025,0.00000020,0.00000061,-0.00000207
 ,0.00000001,0.00000224,0.00000035,-0.00000009,-0.00000119,0.00000051,-
 0.00000011,-0.00000287,0.00000058,0.00000010,-0.00000113,-0.00000104,0
 .00000023,0.00000027,-0.00000245,-0.00000002,-0.00000294,-0.00000062,0
 .00000011,-0.00000295,-0.00000169,0.00000006,-0.00000474,-0.00000177,0
 .00000026,-0.00000228,-0.00000340,0.00000001,-0.00000159,-0.00000032,0
 .00000002,0.00000013,-0.00000021,-0.00000025,-0.00000257,0.00000208,-0
 .00000030,-0.00000338,0.00000254,-0.00000027,-0.00000388,0.00000210,-0
 .00000037,-0.00000078,0.00000391,-0.00000036,0.00000041,0.00000399,-0.
 00000055,-0.00000160,0.00000556,-0.00000033,0.00000015,0.00000361,0.00
 000012,-0.00000160,-0.00000169,0.00000010,-0.00000334,-0.00000188,0.00
 000029,-0.00000098,-0.00000339,0.00000006,-0.00000016,-0.00000072,0.00
 000007,0.00000156,-0.00000041,-0.00000010,-0.00000082,0.00000092,0.000
 00020,-0.00000008,-0.00000227,0.00000020,-0.00000180,-0.00000259,0.000
 00037,0.00000061,-0.00000391,0.00000015,0.00000134,-0.00000131,-0.0000
 0001,0.00000066,0.00000031,0.00000025,0.00000137,-0.00000245,0.0000001
 6,0.00000309,-0.00000102,-0.00000033,-0.00000054,0.00000351,-0.0000002
 8,0.00000136,0.00000330,-0.00000044,-0.00000268,0.00000436,-0.00000042
 ,0.00000003,0.00000456\\\@


 I DON'T PRETEND TO UNDERSTAND THE UNIVERSE --
 IT'S A GREAT DEAL BIGGER THAN I AM.
       -- ATTR. TO WILLIAM ALLINGHAM (1828-89)
 Job cpu time:       2 days  7 hours 21 minutes 54.6 seconds.
 File lengths (MBytes):  RWF=   7571 Int=      0 D2E=      0 Chk=     57 Scr=      2
 Normal termination of Gaussian 09 at Fri Aug 19 02:44:41 2022.
