 Entering Gaussian System, Link 0=g09
 Initial command:
 /home/software/gaussian//09.d01/l1.exe "/home/tntech.edu/jbthorn42/tmp/tmp.xGhOmSvXl5/Gau-764660.inp" -scrdir="/home/tntech.edu/jbthorn42/tmp/tmp.xGhOmSvXl5/"
 Default is to use a total of  16 processors:
                               16 via shared-memory
                                1 via Linda
 Entering Link 1 = /home/software/gaussian//09.d01/l1.exe PID=    764661.
  
 Copyright (c) 1988,1990,1992,1993,1995,1998,2003,2009,2013,
            Gaussian, Inc.  All Rights Reserved.
  
 This is part of the Gaussian(R) 09 program.  It is based on
 the Gaussian(R) 03 system (copyright 2003, Gaussian, Inc.),
 the Gaussian(R) 98 system (copyright 1998, Gaussian, Inc.),
 the Gaussian(R) 94 system (copyright 1995, Gaussian, Inc.),
 the Gaussian 92(TM) system (copyright 1992, Gaussian, Inc.),
 the Gaussian 90(TM) system (copyright 1990, Gaussian, Inc.),
 the Gaussian 88(TM) system (copyright 1988, Gaussian, Inc.),
 the Gaussian 86(TM) system (copyright 1986, Carnegie Mellon
 University), and the Gaussian 82(TM) system (copyright 1983,
 Carnegie Mellon University). Gaussian is a federally registered
 trademark of Gaussian, Inc.
  
 This software contains proprietary and confidential information,
 including trade secrets, belonging to Gaussian, Inc.
  
 This software is provided under written license and may be
 used, copied, transmitted, or stored only in accord with that
 written license.
  
 The following legend is applicable only to US Government
 contracts under FAR:
  
                    RESTRICTED RIGHTS LEGEND
  
 Use, reproduction and disclosure by the US Government is
 subject to restrictions as set forth in subparagraphs (a)
 and (c) of the Commercial Computer Software - Restricted
 Rights clause in FAR 52.227-19.
  
 Gaussian, Inc.
 340 Quinnipiac St., Bldg. 40, Wallingford CT 06492
  
  
 ---------------------------------------------------------------
 Warning -- This program may not be used in any manner that
 competes with the business of Gaussian, Inc. or will provide
 assistance to any competitor of Gaussian, Inc.  The licensee
 of this program is prohibited from giving any competitor of
 Gaussian, Inc. access to this program.  By using this program,
 the user acknowledges that Gaussian, Inc. is engaged in the
 business of creating and licensing software in the field of
 computational chemistry and represents and warrants to the
 licensee that it is not a competitor of Gaussian, Inc. and that
 it will not use this program in any manner prohibited above.
 ---------------------------------------------------------------
  

 Cite this work as:
 Gaussian 09, Revision D.01,
 M. J. Frisch, G. W. Trucks, H. B. Schlegel, G. E. Scuseria, 
 M. A. Robb, J. R. Cheeseman, G. Scalmani, V. Barone, B. Mennucci, 
 G. A. Petersson, H. Nakatsuji, M. Caricato, X. Li, H. P. Hratchian, 
 A. F. Izmaylov, J. Bloino, G. Zheng, J. L. Sonnenberg, M. Hada, 
 M. Ehara, K. Toyota, R. Fukuda, J. Hasegawa, M. Ishida, T. Nakajima, 
 Y. Honda, O. Kitao, H. Nakai, T. Vreven, J. A. Montgomery, Jr., 
 J. E. Peralta, F. Ogliaro, M. Bearpark, J. J. Heyd, E. Brothers, 
 K. N. Kudin, V. N. Staroverov, T. Keith, R. Kobayashi, J. Normand, 
 K. Raghavachari, A. Rendell, J. C. Burant, S. S. Iyengar, J. Tomasi, 
 M. Cossi, N. Rega, J. M. Millam, M. Klene, J. E. Knox, J. B. Cross, 
 V. Bakken, C. Adamo, J. Jaramillo, R. Gomperts, R. E. Stratmann, 
 O. Yazyev, A. J. Austin, R. Cammi, C. Pomelli, J. W. Ochterski, 
 R. L. Martin, K. Morokuma, V. G. Zakrzewski, G. A. Voth, 
 P. Salvador, J. J. Dannenberg, S. Dapprich, A. D. Daniels, 
 O. Farkas, J. B. Foresman, J. V. Ortiz, J. Cioslowski, 
 and D. J. Fox, Gaussian, Inc., Wallingford CT, 2013.
 
 ******************************************
 Gaussian 09:  ES64L-G09RevD.01 24-Apr-2013
                18-Aug-2022 
 ******************************************
 %chk=NaDoc.chk
 %nprocshared=16
 Will use up to   16 processors via shared memory.
 %mem=75MW
 ----------------------------------------------------------------------
 #p opt=verytight freq=(raman,savenormalmodes) b3lyp/6-311+g(d,p) nosym
 m guess=save scf=(xqc,tight)
 ----------------------------------------------------------------------
 1/7=1,14=-1,18=20,19=15,26=3,38=1/1,3;
 2/9=110,12=2,15=1,17=6,18=5,40=1/2;
 3/5=4,6=6,7=111,11=2,16=1,25=1,30=1,71=1,74=-5/1,2,3;
 4//1;
 5/5=2,8=3,13=1,32=2,38=5/2,8;
 6/7=2,8=2,9=2,10=2,28=1/1;
 7/30=1,92=1/1,2,3,16;
 1/7=1,14=-1,18=20,19=15,26=3/3(2);
 2/9=110,15=1/2;
 99//99;
 2/9=110,15=1/2;
 3/5=4,6=6,7=111,11=2,16=1,25=1,30=1,71=1,74=-5/1,2,3;
 4/5=5,16=3,69=1/1;
 5/5=2,8=3,13=1,32=2,38=5/2,8;
 7/30=1,92=1/1,2,3,16;
 1/7=1,14=-1,18=20,19=15,26=3/3(-5);
 2/9=110,15=1/2;
 6/7=2,8=2,9=2,10=2,19=2,28=1/1;
 99/9=1/99;
 Leave Link    1 at Thu Aug 18 21:13:09 2022, MaxMem=    78643200 cpu:         0.8
 (Enter /home/software/gaussian//09.d01/l101.exe)
 -----------
 Na Docusate
 -----------
 Symbolic Z-matrix:
 Charge =  0 Multiplicity = 1
 C                     7.38267   0.31654   3.49624 
 H                     8.46014   0.44488   3.61753 
 H                     7.09043  -0.58032   4.04803 
 H                     6.89044   1.17032   3.96871 
 C                     6.9961    0.20529   2.01405 
 H                     7.52745  -0.63875   1.56057 
 H                     7.33358   1.10073   1.48027 
 C                     5.4829    0.02577   1.79645 
 H                     4.95082   0.87447   2.24082 
 H                     5.15076  -0.86412   2.33817 
 C                     5.10454  -0.09412   0.31055 
 H                     5.58862  -0.98529  -0.10857 
 H                     5.52881   0.76517  -0.22336 
 C                     3.58546  -0.16341   0.0112 
 H                     3.11678   0.74898   0.39375 
 C                     2.87007  -1.38195   0.65585 
 H                     3.58553  -2.20632   0.75662 
 H                     2.0946   -1.73438  -0.02893 
 C                     2.20505  -1.08123   2.01035 
 H                     2.93137  -0.78529   2.76829 
 H                     1.67941  -1.96245   2.38498 
 H                     1.48095  -0.27078   1.90777 
 C                     3.41888  -0.15806  -1.51333 
 H                     3.75677  -1.08862  -1.96288 
 H                     3.92455   0.68968  -1.97126 
 O                     1.98085  -0.09546  -1.90975 
 C                     1.37534   1.10713  -2.02183 
 O                     1.97884   2.18894  -1.87705 
 C                    -0.0859    0.97713  -2.3731 
 H                    -0.17219   0.28549  -3.2134 
 H                    -0.46885   1.94391  -2.69163 
 C                    -0.95173   0.44221  -1.23684 
 H                    -0.49412  -0.3356   -0.63678 
 C                    -2.3424    0.0786   -1.66237 
 O                    -2.92919   0.58532  -2.62283 
 O                    -2.85029  -0.89122  -0.85394 
 C                    -4.28512  -1.26404  -0.99683 
 H                    -4.28421  -2.3518   -0.95575 
 H                    -4.62296  -0.92229  -1.9729 
 C                    -5.10749  -0.6513    0.14262 
 H                    -4.91908   0.42713   0.12854 
 C                    -4.65961  -1.209     1.52128 
 H                    -3.63952  -1.58817   1.42913 
 H                    -5.28915  -2.06928   1.78029 
 C                    -4.66952  -0.17479   2.65914 
 H                    -3.97546   0.63443   2.42948 
 H                    -4.35253  -0.63332   3.59914 
 H                    -5.65869   0.25706   2.81811 
 C                    -6.60375  -0.89512  -0.17811 
 H                    -6.78505  -1.97715  -0.22016 
 H                    -6.81337  -0.50855  -1.1826 
 C                    -7.60644  -0.26164   0.80097 
 H                    -7.39828   0.81004   0.89185 
 H                    -7.4741   -0.68863   1.79921 
 C                    -9.0694   -0.45853   0.36472 
 H                    -9.2723   -1.53019   0.2589 
 H                    -9.21054  -0.02131  -0.62984 
 C                    -10.07927   0.1594    1.34319 
 H                    -9.98702  -0.2854    2.33734 
 H                    -11.10635   0.00723   1.00457 
 H                    -9.9185    1.23546   1.44621 
 S                    -1.08046   1.90599   0.12347 
 O                    -2.36665   1.64337   1.08479 
 O                     0.4575    1.82387   0.81734 
 O                    -1.06777   3.3392   -0.75628 
 Na                    1.15491   3.68287  -0.38437 
 
 NAtoms=     66 NQM=       66 NQMF=       0 NMMI=      0 NMMIF=      0
                NMic=       0 NMicF=      0.
                    Isotopes and Nuclear Properties:
 (Nuclear quadrupole moments (NQMom) in fm**2, nuclear magnetic moments (NMagM)
  in nuclear magnetons)

  Atom         1           2           3           4           5           6           7           8           9          10
 IAtWgt=          12           1           1           1          12           1           1          12           1           1
 AtmWgt=  12.0000000   1.0078250   1.0078250   1.0078250  12.0000000   1.0078250   1.0078250  12.0000000   1.0078250   1.0078250
 NucSpn=           0           1           1           1           0           1           1           0           1           1
 AtZEff=   0.0000000   0.0000000   0.0000000   0.0000000   0.0000000   0.0000000   0.0000000   0.0000000   0.0000000   0.0000000
 NQMom=    0.0000000   0.0000000   0.0000000   0.0000000   0.0000000   0.0000000   0.0000000   0.0000000   0.0000000   0.0000000
 NMagM=    0.0000000   2.7928460   2.7928460   2.7928460   0.0000000   2.7928460   2.7928460   0.0000000   2.7928460   2.7928460
 AtZNuc=   6.0000000   1.0000000   1.0000000   1.0000000   6.0000000   1.0000000   1.0000000   6.0000000   1.0000000   1.0000000

  Atom        11          12          13          14          15          16          17          18          19          20
 IAtWgt=          12           1           1          12           1          12           1           1          12           1
 AtmWgt=  12.0000000   1.0078250   1.0078250  12.0000000   1.0078250  12.0000000   1.0078250   1.0078250  12.0000000   1.0078250
 NucSpn=           0           1           1           0           1           0           1           1           0           1
 AtZEff=   0.0000000   0.0000000   0.0000000   0.0000000   0.0000000   0.0000000   0.0000000   0.0000000   0.0000000   0.0000000
 NQMom=    0.0000000   0.0000000   0.0000000   0.0000000   0.0000000   0.0000000   0.0000000   0.0000000   0.0000000   0.0000000
 NMagM=    0.0000000   2.7928460   2.7928460   0.0000000   2.7928460   0.0000000   2.7928460   2.7928460   0.0000000   2.7928460
 AtZNuc=   6.0000000   1.0000000   1.0000000   6.0000000   1.0000000   6.0000000   1.0000000   1.0000000   6.0000000   1.0000000

  Atom        21          22          23          24          25          26          27          28          29          30
 IAtWgt=           1           1          12           1           1          16          12          16          12           1
 AtmWgt=   1.0078250   1.0078250  12.0000000   1.0078250   1.0078250  15.9949146  12.0000000  15.9949146  12.0000000   1.0078250
 NucSpn=           1           1           0           1           1           0           0           0           0           1
 AtZEff=   0.0000000   0.0000000   0.0000000   0.0000000   0.0000000   0.0000000   0.0000000   0.0000000   0.0000000   0.0000000
 NQMom=    0.0000000   0.0000000   0.0000000   0.0000000   0.0000000   0.0000000   0.0000000   0.0000000   0.0000000   0.0000000
 NMagM=    2.7928460   2.7928460   0.0000000   2.7928460   2.7928460   0.0000000   0.0000000   0.0000000   0.0000000   2.7928460
 AtZNuc=   1.0000000   1.0000000   6.0000000   1.0000000   1.0000000   8.0000000   6.0000000   8.0000000   6.0000000   1.0000000

  Atom        31          32          33          34          35          36          37          38          39          40
 IAtWgt=           1          12           1          12          16          16          12           1           1          12
 AtmWgt=   1.0078250  12.0000000   1.0078250  12.0000000  15.9949146  15.9949146  12.0000000   1.0078250   1.0078250  12.0000000
 NucSpn=           1           0           1           0           0           0           0           1           1           0
 AtZEff=   0.0000000   0.0000000   0.0000000   0.0000000   0.0000000   0.0000000   0.0000000   0.0000000   0.0000000   0.0000000
 NQMom=    0.0000000   0.0000000   0.0000000   0.0000000   0.0000000   0.0000000   0.0000000   0.0000000   0.0000000   0.0000000
 NMagM=    2.7928460   0.0000000   2.7928460   0.0000000   0.0000000   0.0000000   0.0000000   2.7928460   2.7928460   0.0000000
 AtZNuc=   1.0000000   6.0000000   1.0000000   6.0000000   8.0000000   8.0000000   6.0000000   1.0000000   1.0000000   6.0000000

  Atom        41          42          43          44          45          46          47          48          49          50
 IAtWgt=           1          12           1           1          12           1           1           1          12           1
 AtmWgt=   1.0078250  12.0000000   1.0078250   1.0078250  12.0000000   1.0078250   1.0078250   1.0078250  12.0000000   1.0078250
 NucSpn=           1           0           1           1           0           1           1           1           0           1
 AtZEff=   0.0000000   0.0000000   0.0000000   0.0000000   0.0000000   0.0000000   0.0000000   0.0000000   0.0000000   0.0000000
 NQMom=    0.0000000   0.0000000   0.0000000   0.0000000   0.0000000   0.0000000   0.0000000   0.0000000   0.0000000   0.0000000
 NMagM=    2.7928460   0.0000000   2.7928460   2.7928460   0.0000000   2.7928460   2.7928460   2.7928460   0.0000000   2.7928460
 AtZNuc=   1.0000000   6.0000000   1.0000000   1.0000000   6.0000000   1.0000000   1.0000000   1.0000000   6.0000000   1.0000000

  Atom        51          52          53          54          55          56          57          58          59          60
 IAtWgt=           1          12           1           1          12           1           1          12           1           1
 AtmWgt=   1.0078250  12.0000000   1.0078250   1.0078250  12.0000000   1.0078250   1.0078250  12.0000000   1.0078250   1.0078250
 NucSpn=           1           0           1           1           0           1           1           0           1           1
 AtZEff=   0.0000000   0.0000000   0.0000000   0.0000000   0.0000000   0.0000000   0.0000000   0.0000000   0.0000000   0.0000000
 NQMom=    0.0000000   0.0000000   0.0000000   0.0000000   0.0000000   0.0000000   0.0000000   0.0000000   0.0000000   0.0000000
 NMagM=    2.7928460   0.0000000   2.7928460   2.7928460   0.0000000   2.7928460   2.7928460   0.0000000   2.7928460   2.7928460
 AtZNuc=   1.0000000   6.0000000   1.0000000   1.0000000   6.0000000   1.0000000   1.0000000   6.0000000   1.0000000   1.0000000

  Atom        61          62          63          64          65          66
 IAtWgt=           1          32          16          16          16          23
 AtmWgt=   1.0078250  31.9720718  15.9949146  15.9949146  15.9949146  22.9897697
 NucSpn=           1           0           0           0           0           3
 AtZEff=   0.0000000   0.0000000   0.0000000   0.0000000   0.0000000   0.0000000
 NQMom=    0.0000000   0.0000000   0.0000000   0.0000000   0.0000000  10.4000000
 NMagM=    2.7928460   0.0000000   0.0000000   0.0000000   0.0000000   2.2175200
 AtZNuc=   1.0000000  16.0000000   8.0000000   8.0000000   8.0000000  11.0000000
 Leave Link  101 at Thu Aug 18 21:13:10 2022, MaxMem=    78643200 cpu:         0.8
 (Enter /home/software/gaussian//09.d01/l103.exe)

 GradGradGradGradGradGradGradGradGradGradGradGradGradGradGradGradGradGrad
 Berny optimization.
 Initialization pass.
                           ----------------------------
                           !    Initial Parameters    !
                           ! (Angstroms and Degrees)  !
 --------------------------                            --------------------------
 ! Name  Definition              Value          Derivative Info.                !
 --------------------------------------------------------------------------------
 ! R1    R(1,2)                  1.0918         estimate D2E/DX2                !
 ! R2    R(1,3)                  1.0928         estimate D2E/DX2                !
 ! R3    R(1,4)                  1.0929         estimate D2E/DX2                !
 ! R4    R(1,5)                  1.5358         estimate D2E/DX2                !
 ! R5    R(5,6)                  1.0956         estimate D2E/DX2                !
 ! R6    R(5,7)                  1.0957         estimate D2E/DX2                !
 ! R7    R(5,8)                  1.5393         estimate D2E/DX2                !
 ! R8    R(8,9)                  1.0958         estimate D2E/DX2                !
 ! R9    R(8,10)                 1.0935         estimate D2E/DX2                !
 ! R10   R(8,11)                 1.538          estimate D2E/DX2                !
 ! R11   R(11,12)                1.0974         estimate D2E/DX2                !
 ! R12   R(11,13)                1.097          estimate D2E/DX2                !
 ! R13   R(11,14)                1.5498         estimate D2E/DX2                !
 ! R14   R(14,15)                1.0947         estimate D2E/DX2                !
 ! R15   R(14,16)                1.5531         estimate D2E/DX2                !
 ! R16   R(14,23)                1.5336         estimate D2E/DX2                !
 ! R17   R(16,17)                1.0962         estimate D2E/DX2                !
 ! R18   R(16,18)                1.0929         estimate D2E/DX2                !
 ! R19   R(16,19)                1.5386         estimate D2E/DX2                !
 ! R20   R(19,20)                1.0907         estimate D2E/DX2                !
 ! R21   R(19,21)                1.0923         estimate D2E/DX2                !
 ! R22   R(19,22)                1.0916         estimate D2E/DX2                !
 ! R23   R(23,24)                1.0873         estimate D2E/DX2                !
 ! R24   R(23,25)                1.0882         estimate D2E/DX2                !
 ! R25   R(23,26)                1.493          estimate D2E/DX2                !
 ! R26   R(26,27)                1.3511         estimate D2E/DX2                !
 ! R27   R(27,28)                1.2472         estimate D2E/DX2                !
 ! R28   R(27,29)                1.5085         estimate D2E/DX2                !
 ! R29   R(28,66)                2.2669         estimate D2E/DX2                !
 ! R30   R(29,30)                1.0917         estimate D2E/DX2                !
 ! R31   R(29,31)                1.0876         estimate D2E/DX2                !
 ! R32   R(29,32)                1.5254         estimate D2E/DX2                !
 ! R33   R(32,33)                1.0837         estimate D2E/DX2                !
 ! R34   R(32,34)                1.4991         estimate D2E/DX2                !
 ! R35   R(32,62)                2.0024         estimate D2E/DX2                !
 ! R36   R(34,35)                1.2343         estimate D2E/DX2                !
 ! R37   R(34,36)                1.3609         estimate D2E/DX2                !
 ! R38   R(36,37)                1.4893         estimate D2E/DX2                !
 ! R39   R(37,38)                1.0885         estimate D2E/DX2                !
 ! R40   R(37,39)                1.088          estimate D2E/DX2                !
 ! R41   R(37,40)                1.533          estimate D2E/DX2                !
 ! R42   R(40,41)                1.0949         estimate D2E/DX2                !
 ! R43   R(40,42)                1.5532         estimate D2E/DX2                !
 ! R44   R(40,49)                1.5496         estimate D2E/DX2                !
 ! R45   R(42,43)                1.0922         estimate D2E/DX2                !
 ! R46   R(42,44)                1.097          estimate D2E/DX2                !
 ! R47   R(42,45)                1.5377         estimate D2E/DX2                !
 ! R48   R(45,46)                1.0905         estimate D2E/DX2                !
 ! R49   R(45,47)                1.0929         estimate D2E/DX2                !
 ! R50   R(45,48)                1.091          estimate D2E/DX2                !
 ! R51   R(49,50)                1.0979         estimate D2E/DX2                !
 ! R52   R(49,51)                1.0965         estimate D2E/DX2                !
 ! R53   R(49,52)                1.5379         estimate D2E/DX2                !
 ! R54   R(52,53)                1.0955         estimate D2E/DX2                !
 ! R55   R(52,54)                1.0938         estimate D2E/DX2                !
 ! R56   R(52,55)                1.5393         estimate D2E/DX2                !
 ! R57   R(55,56)                1.0958         estimate D2E/DX2                !
 ! R58   R(55,57)                1.0956         estimate D2E/DX2                !
 ! R59   R(55,58)                1.5359         estimate D2E/DX2                !
 ! R60   R(58,59)                1.093          estimate D2E/DX2                !
 ! R61   R(58,60)                1.0921         estimate D2E/DX2                !
 ! R62   R(58,61)                1.0929         estimate D2E/DX2                !
 ! R63   R(62,63)                1.6271         estimate D2E/DX2                !
 ! R64   R(62,64)                1.6892         estimate D2E/DX2                !
 ! R65   R(62,65)                1.6817         estimate D2E/DX2                !
 ! R66   R(62,66)                2.9004         estimate D2E/DX2                !
 ! R67   R(65,66)                2.2796         estimate D2E/DX2                !
 ! A1    A(2,1,3)              107.7149         estimate D2E/DX2                !
 ! A2    A(2,1,4)              107.7351         estimate D2E/DX2                !
 ! A3    A(2,1,5)              111.3528         estimate D2E/DX2                !
 ! A4    A(3,1,4)              107.6016         estimate D2E/DX2                !
 ! A5    A(3,1,5)              111.133          estimate D2E/DX2                !
 ! A6    A(4,1,5)              111.1269         estimate D2E/DX2                !
 ! A7    A(1,5,6)              109.4629         estimate D2E/DX2                !
 ! A8    A(1,5,7)              109.4766         estimate D2E/DX2                !
 ! A9    A(1,5,8)              113.0991         estimate D2E/DX2                !
 ! A10   A(6,5,7)              106.1739         estimate D2E/DX2                !
 ! A11   A(6,5,8)              109.1713         estimate D2E/DX2                !
 ! A12   A(7,5,8)              109.2214         estimate D2E/DX2                !
 ! A13   A(5,8,9)              109.2488         estimate D2E/DX2                !
 ! A14   A(5,8,10)             108.8743         estimate D2E/DX2                !
 ! A15   A(5,8,11)             112.8001         estimate D2E/DX2                !
 ! A16   A(9,8,10)             106.3739         estimate D2E/DX2                !
 ! A17   A(9,8,11)             109.4321         estimate D2E/DX2                !
 ! A18   A(10,8,11)            109.905          estimate D2E/DX2                !
 ! A19   A(8,11,12)            108.8919         estimate D2E/DX2                !
 ! A20   A(8,11,13)            108.3004         estimate D2E/DX2                !
 ! A21   A(8,11,14)            115.5453         estimate D2E/DX2                !
 ! A22   A(12,11,13)           106.2374         estimate D2E/DX2                !
 ! A23   A(12,11,14)           108.8022         estimate D2E/DX2                !
 ! A24   A(13,11,14)           108.6685         estimate D2E/DX2                !
 ! A25   A(11,14,15)           108.3525         estimate D2E/DX2                !
 ! A26   A(11,14,16)           113.9773         estimate D2E/DX2                !
 ! A27   A(11,14,23)           107.3565         estimate D2E/DX2                !
 ! A28   A(15,14,16)           108.1583         estimate D2E/DX2                !
 ! A29   A(15,14,23)           107.3356         estimate D2E/DX2                !
 ! A30   A(16,14,23)           111.427          estimate D2E/DX2                !
 ! A31   A(14,16,17)           109.1203         estimate D2E/DX2                !
 ! A32   A(14,16,18)           108.6485         estimate D2E/DX2                !
 ! A33   A(14,16,19)           114.2767         estimate D2E/DX2                !
 ! A34   A(17,16,18)           106.1518         estimate D2E/DX2                !
 ! A35   A(17,16,19)           110.3747         estimate D2E/DX2                !
 ! A36   A(18,16,19)           107.9343         estimate D2E/DX2                !
 ! A37   A(16,19,20)           112.1458         estimate D2E/DX2                !
 ! A38   A(16,19,21)           110.6238         estimate D2E/DX2                !
 ! A39   A(16,19,22)           110.4305         estimate D2E/DX2                !
 ! A40   A(20,19,21)           107.5186         estimate D2E/DX2                !
 ! A41   A(20,19,22)           107.7937         estimate D2E/DX2                !
 ! A42   A(21,19,22)           108.1778         estimate D2E/DX2                !
 ! A43   A(14,23,24)           111.9793         estimate D2E/DX2                !
 ! A44   A(14,23,25)           111.7518         estimate D2E/DX2                !
 ! A45   A(14,23,26)           111.6366         estimate D2E/DX2                !
 ! A46   A(24,23,25)           110.3867         estimate D2E/DX2                !
 ! A47   A(24,23,26)           103.0282         estimate D2E/DX2                !
 ! A48   A(25,23,26)           107.6489         estimate D2E/DX2                !
 ! A49   A(23,26,27)           119.4076         estimate D2E/DX2                !
 ! A50   A(26,27,28)           123.0637         estimate D2E/DX2                !
 ! A51   A(26,27,29)           112.132          estimate D2E/DX2                !
 ! A52   A(28,27,29)           124.7863         estimate D2E/DX2                !
 ! A53   A(27,28,66)           118.177          estimate D2E/DX2                !
 ! A54   A(27,29,30)           108.0825         estimate D2E/DX2                !
 ! A55   A(27,29,31)           109.4321         estimate D2E/DX2                !
 ! A56   A(27,29,32)           113.9909         estimate D2E/DX2                !
 ! A57   A(30,29,31)           108.0541         estimate D2E/DX2                !
 ! A58   A(30,29,32)           107.8365         estimate D2E/DX2                !
 ! A59   A(31,29,32)           109.2703         estimate D2E/DX2                !
 ! A60   A(29,32,33)           115.1159         estimate D2E/DX2                !
 ! A61   A(29,32,34)           113.5889         estimate D2E/DX2                !
 ! A62   A(29,32,62)           106.6289         estimate D2E/DX2                !
 ! A63   A(33,32,34)           112.0123         estimate D2E/DX2                !
 ! A64   A(33,32,62)           100.1166         estimate D2E/DX2                !
 ! A65   A(34,32,62)           108.0899         estimate D2E/DX2                !
 ! A66   A(32,34,35)           124.216          estimate D2E/DX2                !
 ! A67   A(32,34,36)           110.5145         estimate D2E/DX2                !
 ! A68   A(35,34,36)           125.2653         estimate D2E/DX2                !
 ! A69   A(34,36,37)           118.7466         estimate D2E/DX2                !
 ! A70   A(36,37,38)           104.2243         estimate D2E/DX2                !
 ! A71   A(36,37,39)           107.8545         estimate D2E/DX2                !
 ! A72   A(36,37,40)           110.2087         estimate D2E/DX2                !
 ! A73   A(38,37,39)           110.3662         estimate D2E/DX2                !
 ! A74   A(38,37,40)           111.8273         estimate D2E/DX2                !
 ! A75   A(39,37,40)           112.0066         estimate D2E/DX2                !
 ! A76   A(37,40,41)           106.9675         estimate D2E/DX2                !
 ! A77   A(37,40,42)           111.1961         estimate D2E/DX2                !
 ! A78   A(37,40,49)           107.5332         estimate D2E/DX2                !
 ! A79   A(41,40,42)           108.3895         estimate D2E/DX2                !
 ! A80   A(41,40,49)           108.5715         estimate D2E/DX2                !
 ! A81   A(42,40,49)           113.9335         estimate D2E/DX2                !
 ! A82   A(40,42,43)           108.6086         estimate D2E/DX2                !
 ! A83   A(40,42,44)           109.0063         estimate D2E/DX2                !
 ! A84   A(40,42,45)           114.4241         estimate D2E/DX2                !
 ! A85   A(43,42,44)           106.4784         estimate D2E/DX2                !
 ! A86   A(43,42,45)           107.575          estimate D2E/DX2                !
 ! A87   A(44,42,45)           110.4273         estimate D2E/DX2                !
 ! A88   A(42,45,46)           109.8249         estimate D2E/DX2                !
 ! A89   A(42,45,47)           110.636          estimate D2E/DX2                !
 ! A90   A(42,45,48)           112.3282         estimate D2E/DX2                !
 ! A91   A(46,45,47)           107.9306         estimate D2E/DX2                !
 ! A92   A(46,45,48)           108.3006         estimate D2E/DX2                !
 ! A93   A(47,45,48)           107.6817         estimate D2E/DX2                !
 ! A94   A(40,49,50)           108.8106         estimate D2E/DX2                !
 ! A95   A(40,49,51)           108.586          estimate D2E/DX2                !
 ! A96   A(40,49,52)           115.6559         estimate D2E/DX2                !
 ! A97   A(50,49,51)           106.3072         estimate D2E/DX2                !
 ! A98   A(50,49,52)           108.8243         estimate D2E/DX2                !
 ! A99   A(51,49,52)           108.2605         estimate D2E/DX2                !
 ! A100  A(49,52,53)           109.3826         estimate D2E/DX2                !
 ! A101  A(49,52,54)           109.9581         estimate D2E/DX2                !
 ! A102  A(49,52,55)           112.7391         estimate D2E/DX2                !
 ! A103  A(53,52,54)           106.4515         estimate D2E/DX2                !
 ! A104  A(53,52,55)           109.2225         estimate D2E/DX2                !
 ! A105  A(54,52,55)           108.8883         estimate D2E/DX2                !
 ! A106  A(52,55,56)           109.174          estimate D2E/DX2                !
 ! A107  A(52,55,57)           109.1894         estimate D2E/DX2                !
 ! A108  A(52,55,58)           113.1352         estimate D2E/DX2                !
 ! A109  A(56,55,57)           106.1863         estimate D2E/DX2                !
 ! A110  A(56,55,58)           109.4644         estimate D2E/DX2                !
 ! A111  A(57,55,58)           109.4545         estimate D2E/DX2                !
 ! A112  A(55,58,59)           111.1134         estimate D2E/DX2                !
 ! A113  A(55,58,60)           111.3934         estimate D2E/DX2                !
 ! A114  A(55,58,61)           111.0666         estimate D2E/DX2                !
 ! A115  A(59,58,60)           107.7396         estimate D2E/DX2                !
 ! A116  A(59,58,61)           107.6092         estimate D2E/DX2                !
 ! A117  A(60,58,61)           107.7442         estimate D2E/DX2                !
 ! A118  A(32,62,63)           109.5238         estimate D2E/DX2                !
 ! A119  A(32,62,64)           100.6595         estimate D2E/DX2                !
 ! A120  A(32,62,65)           105.4929         estimate D2E/DX2                !
 ! A121  A(32,62,66)           106.2213         estimate D2E/DX2                !
 ! A122  A(63,62,64)           117.9801         estimate D2E/DX2                !
 ! A123  A(63,62,65)           116.9101         estimate D2E/DX2                !
 ! A124  A(63,62,66)           144.2508         estimate D2E/DX2                !
 ! A125  A(64,62,65)           104.4445         estimate D2E/DX2                !
 ! A126  A(64,62,66)            53.1305         estimate D2E/DX2                !
 ! A127  A(28,66,62)            89.5236         estimate D2E/DX2                !
 ! A128  A(28,66,65)            98.4884         estimate D2E/DX2                !
 ! D1    D(2,1,5,6)             58.1509         estimate D2E/DX2                !
 ! D2    D(2,1,5,7)            -57.8476         estimate D2E/DX2                !
 ! D3    D(2,1,5,8)           -179.8855         estimate D2E/DX2                !
 ! D4    D(3,1,5,6)            -61.9402         estimate D2E/DX2                !
 ! D5    D(3,1,5,7)           -177.9387         estimate D2E/DX2                !
 ! D6    D(3,1,5,8)             60.0234         estimate D2E/DX2                !
 ! D7    D(4,1,5,6)            178.2634         estimate D2E/DX2                !
 ! D8    D(4,1,5,7)             62.2649         estimate D2E/DX2                !
 ! D9    D(4,1,5,8)            -59.773          estimate D2E/DX2                !
 ! D10   D(1,5,8,9)             58.4357         estimate D2E/DX2                !
 ! D11   D(1,5,8,10)           -57.3462         estimate D2E/DX2                !
 ! D12   D(1,5,8,11)          -179.6234         estimate D2E/DX2                !
 ! D13   D(6,5,8,9)           -179.4374         estimate D2E/DX2                !
 ! D14   D(6,5,8,10)            64.7807         estimate D2E/DX2                !
 ! D15   D(6,5,8,11)           -57.4965         estimate D2E/DX2                !
 ! D16   D(7,5,8,9)            -63.745          estimate D2E/DX2                !
 ! D17   D(7,5,8,10)          -179.5269         estimate D2E/DX2                !
 ! D18   D(7,5,8,11)            58.1959         estimate D2E/DX2                !
 ! D19   D(5,8,11,12)           61.9289         estimate D2E/DX2                !
 ! D20   D(5,8,11,13)          -53.1877         estimate D2E/DX2                !
 ! D21   D(5,8,11,14)         -175.311          estimate D2E/DX2                !
 ! D22   D(9,8,11,12)         -176.2335         estimate D2E/DX2                !
 ! D23   D(9,8,11,13)           68.6498         estimate D2E/DX2                !
 ! D24   D(9,8,11,14)          -53.4734         estimate D2E/DX2                !
 ! D25   D(10,8,11,12)         -59.7675         estimate D2E/DX2                !
 ! D26   D(10,8,11,13)        -174.8842         estimate D2E/DX2                !
 ! D27   D(10,8,11,14)          62.9926         estimate D2E/DX2                !
 ! D28   D(8,11,14,15)          59.6244         estimate D2E/DX2                !
 ! D29   D(8,11,14,16)         -60.8327         estimate D2E/DX2                !
 ! D30   D(8,11,14,23)         175.2567         estimate D2E/DX2                !
 ! D31   D(12,11,14,15)       -177.5679         estimate D2E/DX2                !
 ! D32   D(12,11,14,16)         61.9749         estimate D2E/DX2                !
 ! D33   D(12,11,14,23)        -61.9356         estimate D2E/DX2                !
 ! D34   D(13,11,14,15)        -62.3021         estimate D2E/DX2                !
 ! D35   D(13,11,14,16)        177.2407         estimate D2E/DX2                !
 ! D36   D(13,11,14,23)         53.3302         estimate D2E/DX2                !
 ! D37   D(11,14,16,17)        -28.7383         estimate D2E/DX2                !
 ! D38   D(11,14,16,18)       -144.0623         estimate D2E/DX2                !
 ! D39   D(11,14,16,19)         95.3585         estimate D2E/DX2                !
 ! D40   D(15,14,16,17)       -149.3041         estimate D2E/DX2                !
 ! D41   D(15,14,16,18)         95.3719         estimate D2E/DX2                !
 ! D42   D(15,14,16,19)        -25.2073         estimate D2E/DX2                !
 ! D43   D(23,14,16,17)         92.9482         estimate D2E/DX2                !
 ! D44   D(23,14,16,18)        -22.3758         estimate D2E/DX2                !
 ! D45   D(23,14,16,19)       -142.955          estimate D2E/DX2                !
 ! D46   D(11,14,23,24)         70.3164         estimate D2E/DX2                !
 ! D47   D(11,14,23,25)        -54.12           estimate D2E/DX2                !
 ! D48   D(11,14,23,26)       -174.7464         estimate D2E/DX2                !
 ! D49   D(15,14,23,24)       -173.3792         estimate D2E/DX2                !
 ! D50   D(15,14,23,25)         62.1844         estimate D2E/DX2                !
 ! D51   D(15,14,23,26)        -58.442          estimate D2E/DX2                !
 ! D52   D(16,14,23,24)        -55.1361         estimate D2E/DX2                !
 ! D53   D(16,14,23,25)       -179.5726         estimate D2E/DX2                !
 ! D54   D(16,14,23,26)         59.801          estimate D2E/DX2                !
 ! D55   D(14,16,19,20)        -62.7831         estimate D2E/DX2                !
 ! D56   D(14,16,19,21)        177.1895         estimate D2E/DX2                !
 ! D57   D(14,16,19,22)         57.4608         estimate D2E/DX2                !
 ! D58   D(17,16,19,20)         60.6401         estimate D2E/DX2                !
 ! D59   D(17,16,19,21)        -59.3873         estimate D2E/DX2                !
 ! D60   D(17,16,19,22)       -179.1161         estimate D2E/DX2                !
 ! D61   D(18,16,19,20)        176.2414         estimate D2E/DX2                !
 ! D62   D(18,16,19,21)         56.214          estimate D2E/DX2                !
 ! D63   D(18,16,19,22)        -63.5148         estimate D2E/DX2                !
 ! D64   D(14,23,26,27)         86.6867         estimate D2E/DX2                !
 ! D65   D(24,23,26,27)       -152.9778         estimate D2E/DX2                !
 ! D66   D(25,23,26,27)        -36.3087         estimate D2E/DX2                !
 ! D67   D(23,26,27,28)          3.8678         estimate D2E/DX2                !
 ! D68   D(23,26,27,29)       -177.6083         estimate D2E/DX2                !
 ! D69   D(26,27,28,66)       -126.2899         estimate D2E/DX2                !
 ! D70   D(29,27,28,66)         55.3751         estimate D2E/DX2                !
 ! D71   D(26,27,29,30)        -48.6668         estimate D2E/DX2                !
 ! D72   D(26,27,29,31)       -166.1119         estimate D2E/DX2                !
 ! D73   D(26,27,29,32)         71.2006         estimate D2E/DX2                !
 ! D74   D(28,27,29,30)        129.8269         estimate D2E/DX2                !
 ! D75   D(28,27,29,31)         12.3818         estimate D2E/DX2                !
 ! D76   D(28,27,29,32)       -110.3056         estimate D2E/DX2                !
 ! D77   D(27,28,66,62)         -3.1961         estimate D2E/DX2                !
 ! D78   D(27,28,66,65)        -37.5508         estimate D2E/DX2                !
 ! D79   D(27,29,32,33)        -38.3549         estimate D2E/DX2                !
 ! D80   D(27,29,32,34)       -169.3793         estimate D2E/DX2                !
 ! D81   D(27,29,32,62)         71.6723         estimate D2E/DX2                !
 ! D82   D(30,29,32,33)         81.6509         estimate D2E/DX2                !
 ! D83   D(30,29,32,34)        -49.3734         estimate D2E/DX2                !
 ! D84   D(30,29,32,62)       -168.3218         estimate D2E/DX2                !
 ! D85   D(31,29,32,33)       -161.1308         estimate D2E/DX2                !
 ! D86   D(31,29,32,34)         67.8448         estimate D2E/DX2                !
 ! D87   D(31,29,32,62)        -51.1036         estimate D2E/DX2                !
 ! D88   D(29,32,34,35)        -26.4059         estimate D2E/DX2                !
 ! D89   D(29,32,34,36)        152.8843         estimate D2E/DX2                !
 ! D90   D(33,32,34,35)       -158.9454         estimate D2E/DX2                !
 ! D91   D(33,32,34,36)         20.3447         estimate D2E/DX2                !
 ! D92   D(62,32,34,35)         91.7024         estimate D2E/DX2                !
 ! D93   D(62,32,34,36)        -89.0075         estimate D2E/DX2                !
 ! D94   D(29,32,62,63)        160.2091         estimate D2E/DX2                !
 ! D95   D(29,32,62,64)        -74.8125         estimate D2E/DX2                !
 ! D96   D(29,32,62,65)         33.5825         estimate D2E/DX2                !
 ! D97   D(29,32,62,66)        -20.3393         estimate D2E/DX2                !
 ! D98   D(33,32,62,63)        -79.5748         estimate D2E/DX2                !
 ! D99   D(33,32,62,64)         45.4036         estimate D2E/DX2                !
 ! D100  D(33,32,62,65)        153.7986         estimate D2E/DX2                !
 ! D101  D(33,32,62,66)         99.8768         estimate D2E/DX2                !
 ! D102  D(34,32,62,63)         37.7353         estimate D2E/DX2                !
 ! D103  D(34,32,62,64)        162.7137         estimate D2E/DX2                !
 ! D104  D(34,32,62,65)        -88.8913         estimate D2E/DX2                !
 ! D105  D(34,32,62,66)       -142.8131         estimate D2E/DX2                !
 ! D106  D(32,34,36,37)        171.9856         estimate D2E/DX2                !
 ! D107  D(35,34,36,37)         -8.7333         estimate D2E/DX2                !
 ! D108  D(34,36,37,38)        136.4583         estimate D2E/DX2                !
 ! D109  D(34,36,37,39)         19.1456         estimate D2E/DX2                !
 ! D110  D(34,36,37,40)       -103.4066         estimate D2E/DX2                !
 ! D111  D(36,37,40,41)         55.2262         estimate D2E/DX2                !
 ! D112  D(36,37,40,42)        -62.9436         estimate D2E/DX2                !
 ! D113  D(36,37,40,49)        171.6881         estimate D2E/DX2                !
 ! D114  D(38,37,40,41)        170.6615         estimate D2E/DX2                !
 ! D115  D(38,37,40,42)         52.4917         estimate D2E/DX2                !
 ! D116  D(38,37,40,49)        -72.8766         estimate D2E/DX2                !
 ! D117  D(39,37,40,41)        -64.8506         estimate D2E/DX2                !
 ! D118  D(39,37,40,42)        176.9796         estimate D2E/DX2                !
 ! D119  D(39,37,40,49)         51.6113         estimate D2E/DX2                !
 ! D120  D(37,40,42,43)         22.2374         estimate D2E/DX2                !
 ! D121  D(37,40,42,44)        -93.3912         estimate D2E/DX2                !
 ! D122  D(37,40,42,45)        142.425          estimate D2E/DX2                !
 ! D123  D(41,40,42,43)        -95.0705         estimate D2E/DX2                !
 ! D124  D(41,40,42,44)        149.3008         estimate D2E/DX2                !
 ! D125  D(41,40,42,45)         25.117          estimate D2E/DX2                !
 ! D126  D(49,40,42,43)        143.9484         estimate D2E/DX2                !
 ! D127  D(49,40,42,44)         28.3197         estimate D2E/DX2                !
 ! D128  D(49,40,42,45)        -95.8641         estimate D2E/DX2                !
 ! D129  D(37,40,49,50)         61.482          estimate D2E/DX2                !
 ! D130  D(37,40,49,51)        -53.8267         estimate D2E/DX2                !
 ! D131  D(37,40,49,52)       -175.7139         estimate D2E/DX2                !
 ! D132  D(41,40,49,50)        176.8868         estimate D2E/DX2                !
 ! D133  D(41,40,49,51)         61.578          estimate D2E/DX2                !
 ! D134  D(41,40,49,52)        -60.3092         estimate D2E/DX2                !
 ! D135  D(42,40,49,50)        -62.2336         estimate D2E/DX2                !
 ! D136  D(42,40,49,51)       -177.5424         estimate D2E/DX2                !
 ! D137  D(42,40,49,52)         60.5704         estimate D2E/DX2                !
 ! D138  D(40,42,45,46)        -61.396          estimate D2E/DX2                !
 ! D139  D(40,42,45,47)        179.5612         estimate D2E/DX2                !
 ! D140  D(40,42,45,48)         59.1948         estimate D2E/DX2                !
 ! D141  D(43,42,45,46)         59.3655         estimate D2E/DX2                !
 ! D142  D(43,42,45,47)        -59.6773         estimate D2E/DX2                !
 ! D143  D(43,42,45,48)        179.9562         estimate D2E/DX2                !
 ! D144  D(44,42,45,46)        175.1809         estimate D2E/DX2                !
 ! D145  D(44,42,45,47)         56.1381         estimate D2E/DX2                !
 ! D146  D(44,42,45,48)        -64.2283         estimate D2E/DX2                !
 ! D147  D(40,49,52,53)         54.128          estimate D2E/DX2                !
 ! D148  D(40,49,52,54)        -62.4336         estimate D2E/DX2                !
 ! D149  D(40,49,52,55)        175.8557         estimate D2E/DX2                !
 ! D150  D(50,49,52,53)        176.9248         estimate D2E/DX2                !
 ! D151  D(50,49,52,54)         60.3632         estimate D2E/DX2                !
 ! D152  D(50,49,52,55)        -61.3475         estimate D2E/DX2                !
 ! D153  D(51,49,52,53)        -67.9329         estimate D2E/DX2                !
 ! D154  D(51,49,52,54)        175.5055         estimate D2E/DX2                !
 ! D155  D(51,49,52,55)         53.7948         estimate D2E/DX2                !
 ! D156  D(49,52,55,56)         57.306          estimate D2E/DX2                !
 ! D157  D(49,52,55,57)        -58.385          estimate D2E/DX2                !
 ! D158  D(49,52,55,58)        179.4613         estimate D2E/DX2                !
 ! D159  D(53,52,55,56)        179.1242         estimate D2E/DX2                !
 ! D160  D(53,52,55,57)         63.4332         estimate D2E/DX2                !
 ! D161  D(53,52,55,58)        -58.7205         estimate D2E/DX2                !
 ! D162  D(54,52,55,56)        -65.0081         estimate D2E/DX2                !
 ! D163  D(54,52,55,57)        179.3009         estimate D2E/DX2                !
 ! D164  D(54,52,55,58)         57.1472         estimate D2E/DX2                !
 ! D165  D(52,55,58,59)        -60.1118         estimate D2E/DX2                !
 ! D166  D(52,55,58,60)        179.7516         estimate D2E/DX2                !
 ! D167  D(52,55,58,61)         59.641          estimate D2E/DX2                !
 ! D168  D(56,55,58,59)         61.881          estimate D2E/DX2                !
 ! D169  D(56,55,58,60)        -58.2555         estimate D2E/DX2                !
 ! D170  D(56,55,58,61)       -178.3661         estimate D2E/DX2                !
 ! D171  D(57,55,58,59)        177.8827         estimate D2E/DX2                !
 ! D172  D(57,55,58,60)         57.7462         estimate D2E/DX2                !
 ! D173  D(57,55,58,61)        -62.3644         estimate D2E/DX2                !
 ! D174  D(32,62,66,28)         -8.2941         estimate D2E/DX2                !
 ! D175  D(63,62,66,28)        170.8211         estimate D2E/DX2                !
 ! D176  D(64,62,66,28)         83.0012         estimate D2E/DX2                !
 --------------------------------------------------------------------------------
 Trust Radius=3.00D-01 FncErr=1.00D-07 GrdErr=1.00D-06
 Number of steps in this run=    381 maximum allowed number of steps=    396.
 GradGradGradGradGradGradGradGradGradGradGradGradGradGradGradGradGradGrad

 Leave Link  103 at Thu Aug 18 21:13:10 2022, MaxMem=    78643200 cpu:         0.1
 (Enter /home/software/gaussian//09.d01/l202.exe)
 Symmetry turned off by external request.
 Stoichiometry    C20H37NaO7S
 Framework group  C1[X(C20H37NaO7S)]
 Deg. of freedom   192
 Full point group                 C1      NOp   1
                          Input orientation:                          
 ---------------------------------------------------------------------
 Center     Atomic      Atomic             Coordinates (Angstroms)
 Number     Number       Type             X           Y           Z
 ---------------------------------------------------------------------
      1          6           0        7.382673    0.316544    3.496243
      2          1           0        8.460144    0.444879    3.617527
      3          1           0        7.090427   -0.580320    4.048030
      4          1           0        6.890438    1.170324    3.968713
      5          6           0        6.996104    0.205293    2.014055
      6          1           0        7.527448   -0.638750    1.560565
      7          1           0        7.333580    1.100729    1.480272
      8          6           0        5.482904    0.025768    1.796452
      9          1           0        4.950823    0.874468    2.240819
     10          1           0        5.150756   -0.864117    2.338165
     11          6           0        5.104537   -0.094121    0.310553
     12          1           0        5.588624   -0.985289   -0.108573
     13          1           0        5.528814    0.765168   -0.223356
     14          6           0        3.585460   -0.163412    0.011197
     15          1           0        3.116779    0.748983    0.393752
     16          6           0        2.870073   -1.381945    0.655850
     17          1           0        3.585526   -2.206318    0.756617
     18          1           0        2.094599   -1.734384   -0.028928
     19          6           0        2.205051   -1.081226    2.010353
     20          1           0        2.931368   -0.785294    2.768288
     21          1           0        1.679408   -1.962451    2.384977
     22          1           0        1.480954   -0.270782    1.907767
     23          6           0        3.418881   -0.158064   -1.513327
     24          1           0        3.756774   -1.088623   -1.962879
     25          1           0        3.924546    0.689684   -1.971263
     26          8           0        1.980850   -0.095459   -1.909751
     27          6           0        1.375341    1.107132   -2.021831
     28          8           0        1.978843    2.188944   -1.877045
     29          6           0       -0.085900    0.977134   -2.373102
     30          1           0       -0.172186    0.285487   -3.213396
     31          1           0       -0.468854    1.943914   -2.691626
     32          6           0       -0.951733    0.442213   -1.236841
     33          1           0       -0.494118   -0.335600   -0.636776
     34          6           0       -2.342398    0.078601   -1.662367
     35          8           0       -2.929190    0.585316   -2.622834
     36          8           0       -2.850294   -0.891220   -0.853937
     37          6           0       -4.285121   -1.264038   -0.996829
     38          1           0       -4.284210   -2.351801   -0.955748
     39          1           0       -4.622957   -0.922285   -1.972901
     40          6           0       -5.107487   -0.651304    0.142621
     41          1           0       -4.919080    0.427129    0.128542
     42          6           0       -4.659609   -1.208998    1.521279
     43          1           0       -3.639523   -1.588168    1.429134
     44          1           0       -5.289147   -2.069275    1.780291
     45          6           0       -4.669519   -0.174791    2.659136
     46          1           0       -3.975464    0.634429    2.429483
     47          1           0       -4.352531   -0.633316    3.599137
     48          1           0       -5.658686    0.257058    2.818114
     49          6           0       -6.603754   -0.895119   -0.178109
     50          1           0       -6.785047   -1.977153   -0.220159
     51          1           0       -6.813371   -0.508548   -1.182601
     52          6           0       -7.606438   -0.261640    0.800970
     53          1           0       -7.398277    0.810042    0.891845
     54          1           0       -7.474098   -0.688629    1.799206
     55          6           0       -9.069397   -0.458526    0.364724
     56          1           0       -9.272297   -1.530185    0.258901
     57          1           0       -9.210545   -0.021309   -0.629837
     58          6           0      -10.079273    0.159397    1.343187
     59          1           0       -9.987020   -0.285397    2.337338
     60          1           0      -11.106347    0.007232    1.004566
     61          1           0       -9.918499    1.235463    1.446211
     62         16           0       -1.080461    1.905993    0.123468
     63          8           0       -2.366650    1.643374    1.084789
     64          8           0        0.457500    1.823865    0.817335
     65          8           0       -1.067774    3.339196   -0.756283
     66         11           0        1.154906    3.682866   -0.384374
 ---------------------------------------------------------------------
 Rotational constants (GHZ):      0.2655607      0.0539513      0.0512949
 Leave Link  202 at Thu Aug 18 21:13:11 2022, MaxMem=    78643200 cpu:         0.4
 (Enter /home/software/gaussian//09.d01/l301.exe)
 Standard basis: 6-311+G(d,p) (5D, 7F)
 Ernie: Thresh=  0.10000D-02 Tol=  0.10000D-05 Strict=F.
   876 basis functions,  1368 primitive gaussians,   905 cartesian basis functions
   120 alpha electrons      120 beta electrons
       nuclear repulsion energy      3272.2498842447 Hartrees.
 IExCor=  402 DFT=T Ex+Corr=B3LYP ExCW=0 ScaHFX=  0.200000
 ScaDFX=  0.800000  0.720000  1.000000  0.810000 ScalE2=  1.000000  1.000000
 IRadAn=      0 IRanWt=     -1 IRanGd=            0 ICorTp=0 IEmpDi=  4
 NAtoms=   66 NActive=   66 NUniq=   66 SFac= 1.00D+00 NAtFMM=   60 NAOKFM=T Big=T
 Integral buffers will be    131072 words long.
 Raffenetti 2 integral format.
 Two-electron integral symmetry is turned off.
 Leave Link  301 at Thu Aug 18 21:13:11 2022, MaxMem=    78643200 cpu:         0.2
 (Enter /home/software/gaussian//09.d01/l302.exe)
 NPDir=0 NMtPBC=     1 NCelOv=     1 NCel=       1 NClECP=     1 NCelD=      1
         NCelK=      1 NCelE2=     1 NClLst=     1 CellRange=     0.0.
 One-electron integrals computed using PRISM.
 PrsmSu:  requested number of processors reduced to:  15 ShMem   1 Linda.
 NBasis=   876 RedAO= T EigKep=  1.93D-06  NBF=   876
 NBsUse=   876 1.00D-06 EigRej= -1.00D+00 NBFU=   876
 Precomputing XC quadrature grid using
 IXCGrd= 4 IRadAn=           0 IRanWt=          -1 IRanGd=           0 AccXCQ= 0.00D+00.
 Generated NRdTot=       0 NPtTot=           0 NUsed=           0 NTot=          32
 NSgBfM=   807   815   815   815   817 MxSgAt=    66 MxSgA2=    66.
 Leave Link  302 at Thu Aug 18 21:13:14 2022, MaxMem=    78643200 cpu:        38.5
 (Enter /home/software/gaussian//09.d01/l303.exe)
 DipDrv:  MaxL=1.
 Leave Link  303 at Thu Aug 18 21:13:15 2022, MaxMem=    78643200 cpu:         1.7
 (Enter /home/software/gaussian//09.d01/l401.exe)
 ExpMin= 7.60D-03 ExpMax= 9.34D+04 ExpMxC= 3.17D+03 IAcc=3 IRadAn=         5 AccDes= 0.00D+00
 Harris functional with IExCor=  402 and IRadAn=       5 diagonalized for initial guess.
 HarFok:  IExCor=  402 AccDes= 0.00D+00 IRadAn=         5 IDoV= 1 UseB2=F ITyADJ=14
 ICtDFT=  3500011 ScaDFX=  1.000000  1.000000  1.000000  1.000000
 FoFCou: FMM=F IPFlag=           0 FMFlag=      100000 FMFlg1=        2001
         NFxFlg=           0 DoJE=T BraDBF=F KetDBF=T FulRan=T
         wScrn=  0.000000 ICntrl=     500 IOpCl=  0 I1Cent=   200000004 NGrid=           0
         NMat0=    1 NMatS0=      1 NMatT0=    0 NMatD0=    1 NMtDS0=    0 NMtDT0=    0
 Symmetry not used in FoFCou.
 Harris En= -1872.17132154903    
 JPrj=0 DoOrth=F DoCkMO=F.
 Leave Link  401 at Thu Aug 18 21:13:25 2022, MaxMem=    78643200 cpu:        95.6
 (Enter /home/software/gaussian//09.d01/l502.exe)
 Closed shell SCF:
 Using DIIS extrapolation, IDIIS=  1040.
 Two-electron integral symmetry not used.
 IVT=     2483059 IEndB=     2483059 NGot=    78643200 MDV=    76984296
 LenX=    76984296 LenY=    76164366
 Requested convergence on RMS density matrix=1.00D-08 within  64 cycles.
 Requested convergence on MAX density matrix=1.00D-06.
 Requested convergence on             energy=1.00D-06.
 No special actions if energy rises.
 Fock matrices will be formed incrementally for  20 cycles.

 Cycle   1  Pass 1  IDiag  1:
 FoFJK:  IHMeth= 1 ICntrl=       0 DoSepK=F KAlg= 0 I1Cent=   0 FoldK=F
 IRaf= 720000000 NMat=   1 IRICut=       1 DoRegI=T DoRafI=F ISym2E= 0.
 FoFCou: FMM=T IPFlag=           0 FMFlag=      100000 FMFlg1=        2001
         NFxFlg=           0 DoJE=F BraDBF=F KetDBF=F FulRan=T
         wScrn=  0.000000 ICntrl=       0 IOpCl=  0 I1Cent=           0 NGrid=           0
         NMat0=    1 NMatS0=      1 NMatT0=    0 NMatD0=    1 NMtDS0=    0 NMtDT0=    0
 Symmetry not used in FoFCou.
 FMM levels:  10  Number of levels for PrismC:   9
 E= -1870.60679671441    
 DIIS: error= 2.48D-02 at cycle   1 NSaved=   1.
 NSaved= 1 IEnMin= 1 EnMin= -1870.60679671441     IErMin= 1 ErrMin= 2.48D-02
 ErrMax= 2.48D-02  0.00D+00 EMaxC= 1.00D-01 BMatC= 1.56D+00 BMatP= 1.56D+00
 IDIUse=3 WtCom= 7.52D-01 WtEn= 2.48D-01
 Coeff-Com:  0.100D+01
 Coeff-En:   0.100D+01
 Coeff:      0.100D+01
 Gap=     0.143 Goal=   None    Shift=    0.000
 GapD=    0.143 DampG=1.000 DampE=0.500 DampFc=0.5000 IDamp=-1.
 Damping current iteration by 5.00D-01
 RMSDP=1.88D-01 MaxDP=5.08D+01              OVMax= 3.36D-01

 Cycle   2  Pass 1  IDiag  1:
 RMSU=  6.84D-02    CP:  2.69D+00
 E= -1870.69968964337     Delta-E=       -0.092892928958 Rises=F Damp=T
 DIIS: error= 1.56D-02 at cycle   2 NSaved=   2.
 NSaved= 2 IEnMin= 2 EnMin= -1870.69968964337     IErMin= 2 ErrMin= 1.56D-02
 ErrMax= 1.56D-02  0.00D+00 EMaxC= 1.00D-01 BMatC= 4.04D-01 BMatP= 1.56D+00
 IDIUse=3 WtCom= 8.44D-01 WtEn= 1.56D-01
 Coeff-Com:  0.298D+00 0.702D+00
 Coeff-En:   0.470D+00 0.530D+00
 Coeff:      0.325D+00 0.675D+00
 Gap=     0.234 Goal=   None    Shift=    0.000
 RMSDP=8.44D-02 MaxDP=2.29D+01 DE=-9.29D-02 OVMax= 2.96D-01

 Cycle   3  Pass 1  IDiag  1:
 RMSU=  5.80D-03    CP:  1.15D+00  1.23D-01
 E= -1871.67224775786     Delta-E=       -0.972558114499 Rises=F Damp=F
 DIIS: error= 1.04D-02 at cycle   3 NSaved=   3.
 NSaved= 3 IEnMin= 3 EnMin= -1871.67224775786     IErMin= 3 ErrMin= 1.04D-02
 ErrMax= 1.04D-02  0.00D+00 EMaxC= 1.00D-01 BMatC= 2.50D-01 BMatP= 4.04D-01
 IDIUse=3 WtCom= 8.96D-01 WtEn= 1.04D-01
 Coeff-Com:  0.120D+00 0.437D+00 0.443D+00
 Coeff-En:   0.000D+00 0.000D+00 0.100D+01
 Coeff:      0.107D+00 0.392D+00 0.501D+00
 Gap=     0.262 Goal=   None    Shift=    0.000
 RMSDP=1.75D-02 MaxDP=5.15D+00 DE=-9.73D-01 OVMax= 1.15D-01

 Cycle   4  Pass 1  IDiag  1:
 RMSU=  5.22D-03    CP:  1.46D+00  2.93D-01  6.94D-01
 E= -1871.86436841196     Delta-E=       -0.192120654092 Rises=F Damp=F
 DIIS: error= 4.50D-03 at cycle   4 NSaved=   4.
 NSaved= 4 IEnMin= 4 EnMin= -1871.86436841196     IErMin= 4 ErrMin= 4.50D-03
 ErrMax= 4.50D-03  0.00D+00 EMaxC= 1.00D-01 BMatC= 4.26D-02 BMatP= 2.50D-01
 IDIUse=3 WtCom= 9.55D-01 WtEn= 4.50D-02
 Coeff-Com:  0.180D-01 0.105D+00 0.304D+00 0.573D+00
 Coeff-En:   0.000D+00 0.000D+00 0.157D+00 0.843D+00
 Coeff:      0.172D-01 0.100D+00 0.297D+00 0.585D+00
 Gap=     0.199 Goal=   None    Shift=    0.000
 RMSDP=3.08D-03 MaxDP=7.04D-01 DE=-1.92D-01 OVMax= 4.31D-02

 Cycle   5  Pass 1  IDiag  1:
 RMSU=  2.04D-03    CP:  1.42D+00  2.88D-01  7.70D-01  6.60D-01
 E= -1871.89310167158     Delta-E=       -0.028733259624 Rises=F Damp=F
 DIIS: error= 1.90D-03 at cycle   5 NSaved=   5.
 NSaved= 5 IEnMin= 5 EnMin= -1871.89310167158     IErMin= 5 ErrMin= 1.90D-03
 ErrMax= 1.90D-03  0.00D+00 EMaxC= 1.00D-01 BMatC= 9.31D-03 BMatP= 4.26D-02
 IDIUse=3 WtCom= 9.81D-01 WtEn= 1.90D-02
 Coeff-Com: -0.277D-03 0.255D-01 0.159D+00 0.413D+00 0.402D+00
 Coeff-En:   0.000D+00 0.000D+00 0.000D+00 0.148D+00 0.852D+00
 Coeff:     -0.272D-03 0.250D-01 0.156D+00 0.408D+00 0.411D+00
 Gap=     0.204 Goal=   None    Shift=    0.000
 RMSDP=2.69D-03 MaxDP=6.58D-01 DE=-2.87D-02 OVMax= 1.98D-02

 Cycle   6  Pass 1  IDiag  1:
 RMSU=  5.30D-04    CP:  1.39D+00  2.65D-01  7.98D-01  7.95D-01  3.12D-01
 E= -1871.89944554567     Delta-E=       -0.006343874094 Rises=F Damp=F
 DIIS: error= 7.57D-04 at cycle   6 NSaved=   6.
 NSaved= 6 IEnMin= 6 EnMin= -1871.89944554567     IErMin= 6 ErrMin= 7.57D-04
 ErrMax= 7.57D-04  0.00D+00 EMaxC= 1.00D-01 BMatC= 1.10D-03 BMatP= 9.31D-03
 IDIUse=3 WtCom= 9.92D-01 WtEn= 7.57D-03
 Coeff-Com: -0.231D-02 0.141D-02 0.593D-01 0.185D+00 0.283D+00 0.474D+00
 Coeff-En:   0.000D+00 0.000D+00 0.000D+00 0.000D+00 0.116D+00 0.884D+00
 Coeff:     -0.230D-02 0.140D-02 0.589D-01 0.183D+00 0.282D+00 0.477D+00
 Gap=     0.199 Goal=   None    Shift=    0.000
 RMSDP=5.79D-04 MaxDP=1.04D-01 DE=-6.34D-03 OVMax= 8.24D-03

 Cycle   7  Pass 1  IDiag  1:
 RMSU=  1.98D-04    CP:  1.38D+00  2.64D-01  7.79D-01  7.61D-01  5.10D-01
                    CP:  5.24D-01
 E= -1871.90020189599     Delta-E=       -0.000756350320 Rises=F Damp=F
 DIIS: error= 2.57D-04 at cycle   7 NSaved=   7.
 NSaved= 7 IEnMin= 7 EnMin= -1871.90020189599     IErMin= 7 ErrMin= 2.57D-04
 ErrMax= 2.57D-04  0.00D+00 EMaxC= 1.00D-01 BMatC= 1.52D-04 BMatP= 1.10D-03
 IDIUse=3 WtCom= 9.97D-01 WtEn= 2.57D-03
 Coeff-Com: -0.125D-02-0.274D-02 0.188D-01 0.688D-01 0.139D+00 0.324D+00
 Coeff-Com:  0.454D+00
 Coeff-En:   0.000D+00 0.000D+00 0.000D+00 0.000D+00 0.000D+00 0.107D+00
 Coeff-En:   0.893D+00
 Coeff:     -0.125D-02-0.273D-02 0.188D-01 0.687D-01 0.138D+00 0.323D+00
 Coeff:      0.455D+00
 Gap=     0.199 Goal=   None    Shift=    0.000
 RMSDP=2.96D-04 MaxDP=7.46D-02 DE=-7.56D-04 OVMax= 2.37D-03

 Cycle   8  Pass 1  IDiag  1:
 RMSU=  8.29D-05    CP:  1.39D+00  2.65D-01  7.90D-01  7.77D-01  4.47D-01
                    CP:  5.95D-01  6.64D-01
 E= -1871.90030131921     Delta-E=       -0.000099423220 Rises=F Damp=F
 DIIS: error= 1.15D-04 at cycle   8 NSaved=   8.
 NSaved= 8 IEnMin= 8 EnMin= -1871.90030131921     IErMin= 8 ErrMin= 1.15D-04
 ErrMax= 1.15D-04  0.00D+00 EMaxC= 1.00D-01 BMatC= 2.41D-05 BMatP= 1.52D-04
 IDIUse=3 WtCom= 9.99D-01 WtEn= 1.15D-03
 Coeff-Com: -0.322D-03-0.201D-02 0.436D-02 0.200D-01 0.544D-01 0.153D+00
 Coeff-Com:  0.320D+00 0.450D+00
 Coeff-En:   0.000D+00 0.000D+00 0.000D+00 0.000D+00 0.000D+00 0.000D+00
 Coeff-En:   0.140D+00 0.860D+00
 Coeff:     -0.322D-03-0.200D-02 0.436D-02 0.199D-01 0.544D-01 0.153D+00
 Coeff:      0.320D+00 0.450D+00
 Gap=     0.200 Goal=   None    Shift=    0.000
 RMSDP=1.12D-04 MaxDP=3.70D-02 DE=-9.94D-05 OVMax= 1.26D-03

 Cycle   9  Pass 1  IDiag  1:
 RMSU=  3.04D-05    CP:  1.39D+00  2.65D-01  7.87D-01  7.69D-01  4.61D-01
                    CP:  5.83D-01  6.52D-01  4.72D-01
 E= -1871.90031900150     Delta-E=       -0.000017682281 Rises=F Damp=F
 DIIS: error= 3.32D-05 at cycle   9 NSaved=   9.
 NSaved= 9 IEnMin= 9 EnMin= -1871.90031900150     IErMin= 9 ErrMin= 3.32D-05
 ErrMax= 3.32D-05  0.00D+00 EMaxC= 1.00D-01 BMatC= 1.62D-06 BMatP= 2.41D-05
 IDIUse=1 WtCom= 1.00D+00 WtEn= 0.00D+00
 Coeff-Com:  0.233D-04-0.822D-03 0.873D-04 0.259D-02 0.143D-01 0.472D-01
 Coeff-Com:  0.126D+00 0.259D+00 0.551D+00
 Coeff:      0.233D-04-0.822D-03 0.873D-04 0.259D-02 0.143D-01 0.472D-01
 Coeff:      0.126D+00 0.259D+00 0.551D+00
 Gap=     0.200 Goal=   None    Shift=    0.000
 RMSDP=3.93D-05 MaxDP=1.35D-02 DE=-1.77D-05 OVMax= 2.99D-04

 Cycle  10  Pass 1  IDiag  1:
 RMSU=  1.40D-05    CP:  1.39D+00  2.65D-01  7.87D-01  7.72D-01  4.63D-01
                    CP:  5.96D-01  6.64D-01  5.77D-01  6.77D-01
 E= -1871.90031996070     Delta-E=       -0.000000959203 Rises=F Damp=F
 DIIS: error= 1.87D-05 at cycle  10 NSaved=  10.
 NSaved=10 IEnMin=10 EnMin= -1871.90031996070     IErMin=10 ErrMin= 1.87D-05
 ErrMax= 1.87D-05  0.00D+00 EMaxC= 1.00D-01 BMatC= 4.73D-07 BMatP= 1.62D-06
 IDIUse=1 WtCom= 1.00D+00 WtEn= 0.00D+00
 Coeff-Com:  0.575D-04-0.298D-03-0.495D-03-0.843D-03 0.268D-02 0.118D-01
 Coeff-Com:  0.431D-01 0.119D+00 0.387D+00 0.437D+00
 Coeff:      0.575D-04-0.298D-03-0.495D-03-0.843D-03 0.268D-02 0.118D-01
 Coeff:      0.431D-01 0.119D+00 0.387D+00 0.437D+00
 Gap=     0.200 Goal=   None    Shift=    0.000
 RMSDP=2.08D-05 MaxDP=6.81D-03 DE=-9.59D-07 OVMax= 1.63D-04

 Cycle  11  Pass 1  IDiag  1:
 RMSU=  5.27D-06    CP:  1.39D+00  2.65D-01  7.87D-01  7.71D-01  4.61D-01
                    CP:  5.92D-01  6.74D-01  5.28D-01  7.56D-01  4.02D-01
 E= -1871.90032026906     Delta-E=       -0.000000308358 Rises=F Damp=F
 DIIS: error= 7.70D-06 at cycle  11 NSaved=  11.
 NSaved=11 IEnMin=11 EnMin= -1871.90032026906     IErMin=11 ErrMin= 7.70D-06
 ErrMax= 7.70D-06  0.00D+00 EMaxC= 1.00D-01 BMatC= 8.11D-08 BMatP= 4.73D-07
 IDIUse=1 WtCom= 1.00D+00 WtEn= 0.00D+00
 Coeff-Com:  0.341D-04-0.788D-04-0.381D-03-0.105D-02-0.419D-03 0.785D-03
 Coeff-Com:  0.101D-01 0.448D-01 0.190D+00 0.318D+00 0.438D+00
 Coeff:      0.341D-04-0.788D-04-0.381D-03-0.105D-02-0.419D-03 0.785D-03
 Coeff:      0.101D-01 0.448D-01 0.190D+00 0.318D+00 0.438D+00
 Gap=     0.200 Goal=   None    Shift=    0.000
 RMSDP=5.14D-06 MaxDP=1.24D-03 DE=-3.08D-07 OVMax= 6.97D-05

 Cycle  12  Pass 1  IDiag  1:
 RMSU=  1.24D-06    CP:  1.39D+00  2.65D-01  7.87D-01  7.71D-01  4.62D-01
                    CP:  5.93D-01  6.71D-01  5.48D-01  7.58D-01  5.94D-01
                    CP:  5.23D-01
 E= -1871.90032033094     Delta-E=       -0.000000061886 Rises=F Damp=F
 DIIS: error= 1.54D-06 at cycle  12 NSaved=  12.
 NSaved=12 IEnMin=12 EnMin= -1871.90032033094     IErMin=12 ErrMin= 1.54D-06
 ErrMax= 1.54D-06  0.00D+00 EMaxC= 1.00D-01 BMatC= 4.61D-09 BMatP= 8.11D-08
 IDIUse=1 WtCom= 1.00D+00 WtEn= 0.00D+00
 Coeff-Com:  0.951D-05-0.770D-05-0.170D-03-0.497D-03-0.555D-03-0.923D-03
 Coeff-Com:  0.813D-03 0.127D-01 0.621D-01 0.128D+00 0.249D+00 0.550D+00
 Coeff:      0.951D-05-0.770D-05-0.170D-03-0.497D-03-0.555D-03-0.923D-03
 Coeff:      0.813D-03 0.127D-01 0.621D-01 0.128D+00 0.249D+00 0.550D+00
 Gap=     0.200 Goal=   None    Shift=    0.000
 RMSDP=1.02D-06 MaxDP=1.92D-04 DE=-6.19D-08 OVMax= 1.38D-05

 Cycle  13  Pass 1  IDiag  1:
 RMSU=  3.66D-07    CP:  1.39D+00  2.65D-01  7.87D-01  7.71D-01  4.62D-01
                    CP:  5.93D-01  6.71D-01  5.48D-01  7.60D-01  5.59D-01
                    CP:  6.04D-01  6.71D-01
 E= -1871.90032033406     Delta-E=       -0.000000003116 Rises=F Damp=F
 DIIS: error= 8.05D-07 at cycle  13 NSaved=  13.
 NSaved=13 IEnMin=13 EnMin= -1871.90032033406     IErMin=13 ErrMin= 8.05D-07
 ErrMax= 8.05D-07  0.00D+00 EMaxC= 1.00D-01 BMatC= 1.00D-09 BMatP= 4.61D-09
 IDIUse=1 WtCom= 1.00D+00 WtEn= 0.00D+00
 Coeff-Com:  0.118D-06 0.747D-05-0.634D-04-0.183D-03-0.322D-03-0.748D-03
 Coeff-Com: -0.878D-03 0.235D-02 0.133D-01 0.386D-01 0.102D+00 0.361D+00
 Coeff-Com:  0.486D+00
 Coeff:      0.118D-06 0.747D-05-0.634D-04-0.183D-03-0.322D-03-0.748D-03
 Coeff:     -0.878D-03 0.235D-02 0.133D-01 0.386D-01 0.102D+00 0.361D+00
 Coeff:      0.486D+00
 Gap=     0.200 Goal=   None    Shift=    0.000
 RMSDP=4.16D-07 MaxDP=1.40D-04 DE=-3.12D-09 OVMax= 5.65D-06

 Cycle  14  Pass 1  IDiag  1:
 RMSU=  1.51D-07    CP:  1.39D+00  2.65D-01  7.87D-01  7.71D-01  4.62D-01
                    CP:  5.93D-01  6.71D-01  5.49D-01  7.61D-01  5.68D-01
                    CP:  5.96D-01  7.06D-01  8.14D-01
 E= -1871.90032033454     Delta-E=       -0.000000000483 Rises=F Damp=F
 DIIS: error= 2.81D-07 at cycle  14 NSaved=  14.
 NSaved=14 IEnMin=14 EnMin= -1871.90032033454     IErMin=14 ErrMin= 2.81D-07
 ErrMax= 2.81D-07  0.00D+00 EMaxC= 1.00D-01 BMatC= 1.19D-10 BMatP= 1.00D-09
 IDIUse=1 WtCom= 1.00D+00 WtEn= 0.00D+00
 Coeff-Com: -0.197D-05 0.645D-05-0.145D-04-0.375D-04-0.123D-03-0.346D-03
 Coeff-Com: -0.697D-03-0.522D-03-0.212D-02 0.290D-02 0.232D-01 0.136D+00
 Coeff-Com:  0.300D+00 0.542D+00
 Coeff:     -0.197D-05 0.645D-05-0.145D-04-0.375D-04-0.123D-03-0.346D-03
 Coeff:     -0.697D-03-0.522D-03-0.212D-02 0.290D-02 0.232D-01 0.136D+00
 Coeff:      0.300D+00 0.542D+00
 Gap=     0.200 Goal=   None    Shift=    0.000
 RMSDP=9.84D-08 MaxDP=2.22D-05 DE=-4.83D-10 OVMax= 2.17D-06

 Cycle  15  Pass 1  IDiag  1:
 RMSU=  4.79D-08    CP:  1.39D+00  2.65D-01  7.87D-01  7.71D-01  4.62D-01
                    CP:  5.93D-01  6.71D-01  5.49D-01  7.60D-01  5.68D-01
                    CP:  6.03D-01  7.15D-01  8.43D-01  7.02D-01
 E= -1871.90032033474     Delta-E=       -0.000000000196 Rises=F Damp=F
 DIIS: error= 1.27D-07 at cycle  15 NSaved=  15.
 NSaved=15 IEnMin=15 EnMin= -1871.90032033474     IErMin=15 ErrMin= 1.27D-07
 ErrMax= 1.27D-07  0.00D+00 EMaxC= 1.00D-01 BMatC= 1.55D-11 BMatP= 1.19D-10
 IDIUse=1 WtCom= 1.00D+00 WtEn= 0.00D+00
 Coeff-Com: -0.125D-05 0.290D-05-0.172D-05-0.142D-05-0.355D-04-0.118D-03
 Coeff-Com: -0.299D-03-0.553D-03-0.285D-02-0.285D-02 0.164D-02 0.362D-01
 Coeff-Com:  0.117D+00 0.331D+00 0.521D+00
 Coeff:     -0.125D-05 0.290D-05-0.172D-05-0.142D-05-0.355D-04-0.118D-03
 Coeff:     -0.299D-03-0.553D-03-0.285D-02-0.285D-02 0.164D-02 0.362D-01
 Coeff:      0.117D+00 0.331D+00 0.521D+00
 Gap=     0.200 Goal=   None    Shift=    0.000
 RMSDP=4.19D-08 MaxDP=6.03D-06 DE=-1.96D-10 OVMax= 5.01D-07

 Cycle  16  Pass 1  IDiag  1:
 RMSU=  2.50D-08    CP:  1.39D+00  2.65D-01  7.87D-01  7.71D-01  4.62D-01
                    CP:  5.93D-01  6.71D-01  5.49D-01  7.60D-01  5.69D-01
                    CP:  6.02D-01  7.26D-01  8.18D-01  7.09D-01  9.60D-01
 E= -1871.90032033488     Delta-E=       -0.000000000140 Rises=F Damp=F
 DIIS: error= 2.82D-08 at cycle  16 NSaved=  16.
 NSaved=16 IEnMin=16 EnMin= -1871.90032033488     IErMin=16 ErrMin= 2.82D-08
 ErrMax= 2.82D-08  0.00D+00 EMaxC= 1.00D-01 BMatC= 9.76D-13 BMatP= 1.55D-11
 IDIUse=1 WtCom= 1.00D+00 WtEn= 0.00D+00
 Coeff-Com: -0.374D-06 0.751D-06 0.561D-06 0.295D-05-0.453D-05-0.219D-04
 Coeff-Com: -0.711D-04-0.213D-03-0.116D-02-0.170D-02-0.192D-02 0.163D-02
 Coeff-Com:  0.219D-01 0.103D+00 0.262D+00 0.616D+00
 Coeff:     -0.374D-06 0.751D-06 0.561D-06 0.295D-05-0.453D-05-0.219D-04
 Coeff:     -0.711D-04-0.213D-03-0.116D-02-0.170D-02-0.192D-02 0.163D-02
 Coeff:      0.219D-01 0.103D+00 0.262D+00 0.616D+00
 Gap=     0.200 Goal=   None    Shift=    0.000
 RMSDP=2.32D-08 MaxDP=5.14D-06 DE=-1.40D-10 OVMax= 2.23D-07

 Cycle  17  Pass 1  IDiag  1:
 RMSU=  1.14D-08    CP:  1.39D+00  2.65D-01  7.87D-01  7.71D-01  4.62D-01
                    CP:  5.93D-01  6.71D-01  5.49D-01  7.60D-01  5.69D-01
                    CP:  6.02D-01  7.24D-01  8.33D-01  7.30D-01  9.60D-01
                    CP:  9.15D-01
 E= -1871.90032033468     Delta-E=        0.000000000200 Rises=F Damp=F
 DIIS: error= 5.09D-09 at cycle  17 NSaved=  17.
 NSaved=17 IEnMin=16 EnMin= -1871.90032033488     IErMin=17 ErrMin= 5.09D-09
 ErrMax= 5.09D-09  0.00D+00 EMaxC= 1.00D-01 BMatC= 7.75D-14 BMatP= 9.76D-13
 IDIUse=1 WtCom= 1.00D+00 WtEn= 0.00D+00
 Coeff-Com: -0.689D-07 0.136D-06 0.260D-06 0.109D-05 0.176D-06-0.240D-05
 Coeff-Com: -0.116D-04-0.545D-04-0.299D-03-0.506D-03-0.921D-03-0.177D-02
 Coeff-Com:  0.169D-02 0.234D-01 0.843D-01 0.297D+00 0.597D+00
 Coeff:     -0.689D-07 0.136D-06 0.260D-06 0.109D-05 0.176D-06-0.240D-05
 Coeff:     -0.116D-04-0.545D-04-0.299D-03-0.506D-03-0.921D-03-0.177D-02
 Coeff:      0.169D-02 0.234D-01 0.843D-01 0.297D+00 0.597D+00
 Gap=     0.200 Goal=   None    Shift=    0.000
 RMSDP=1.88D-08 MaxDP=2.61D-06 DE= 2.00D-10 OVMax= 3.83D-08

 Cycle  18  Pass 1  IDiag  1:
 RMSU=  1.31D-08    CP:  1.39D+00  2.65D-01  7.87D-01  7.71D-01  4.62D-01
                    CP:  5.93D-01  6.71D-01  5.49D-01  7.60D-01  5.69D-01
                    CP:  6.02D-01  7.25D-01  8.30D-01  7.22D-01  1.02D+00
                    CP:  1.02D+00  1.37D+00
 E= -1871.90032033498     Delta-E=       -0.000000000301 Rises=F Damp=F
 DIIS: error= 1.92D-09 at cycle  18 NSaved=  18.
 NSaved=18 IEnMin=18 EnMin= -1871.90032033498     IErMin=18 ErrMin= 1.92D-09
 ErrMax= 1.92D-09  0.00D+00 EMaxC= 1.00D-01 BMatC= 6.07D-15 BMatP= 7.75D-14
 IDIUse=1 WtCom= 1.00D+00 WtEn= 0.00D+00
 Coeff-Com:  0.137D-08-0.578D-08 0.101D-06 0.315D-06 0.666D-06 0.106D-05
 Coeff-Com:  0.745D-06-0.722D-05-0.396D-04-0.886D-04-0.279D-03-0.100D-02
 Coeff-Com: -0.106D-02 0.148D-02 0.152D-01 0.811D-01 0.262D+00 0.643D+00
 Coeff:      0.137D-08-0.578D-08 0.101D-06 0.315D-06 0.666D-06 0.106D-05
 Coeff:      0.745D-06-0.722D-05-0.396D-04-0.886D-04-0.279D-03-0.100D-02
 Coeff:     -0.106D-02 0.148D-02 0.152D-01 0.811D-01 0.262D+00 0.643D+00
 Gap=     0.200 Goal=   None    Shift=    0.000
 RMSDP=2.62D-08 MaxDP=3.93D-06 DE=-3.01D-10 OVMax= 1.95D-08

 Cycle  19  Pass 1  IDiag  1:
 RMSU=  1.29D-08    CP:  1.39D+00  2.65D-01  7.87D-01  7.71D-01  4.62D-01
                    CP:  5.93D-01  6.71D-01  5.49D-01  7.60D-01  5.69D-01
                    CP:  6.02D-01  7.27D-01  8.24D-01  7.04D-01  1.13D+00
                    CP:  1.22D+00  2.01D+00  2.04D+00
 E= -1871.90032033458     Delta-E=        0.000000000395 Rises=F Damp=F
 DIIS: error= 3.20D-09 at cycle  19 NSaved=  19.
 NSaved=19 IEnMin=18 EnMin= -1871.90032033498     IErMin=18 ErrMin= 1.92D-09
 ErrMax= 3.20D-09  0.00D+00 EMaxC= 1.00D-01 BMatC= 2.68D-15 BMatP= 6.07D-15
 IDIUse=1 WtCom= 1.00D+00 WtEn= 0.00D+00
 Large coefficients: NSaved= 19 BigCof=    0.00 CofMax=   10.00 Det=-2.95D-15
 Inversion failed.  Reducing to 18 matrices.
 Large coefficients: NSaved= 18 BigCof=    0.00 CofMax=   10.00 Det=-6.23D-15
 Inversion failed.  Reducing to 17 matrices.
 Large coefficients: NSaved= 17 BigCof=    0.00 CofMax=   10.00 Det=-6.28D-15
 Inversion failed.  Reducing to 16 matrices.
 Large coefficients: NSaved= 16 BigCof=    0.00 CofMax=   10.00 Det=-6.34D-15
 Inversion failed.  Reducing to 15 matrices.
 Coeff-Com:  0.719D-07-0.140D-06-0.780D-06-0.437D-05-0.205D-04-0.389D-04
 Coeff-Com: -0.128D-03-0.448D-03-0.333D-03 0.141D-02 0.981D-02 0.510D-01
 Coeff-Com:  0.169D+00 0.451D+00 0.319D+00
 Coeff:      0.719D-07-0.140D-06-0.780D-06-0.437D-05-0.205D-04-0.389D-04
 Coeff:     -0.128D-03-0.448D-03-0.333D-03 0.141D-02 0.981D-02 0.510D-01
 Coeff:      0.169D+00 0.451D+00 0.319D+00
 Gap=     0.200 Goal=   None    Shift=    0.000
 RMSDP=2.22D-08 MaxDP=3.53D-06 DE= 3.95D-10 OVMax= 4.52D-09

 Cycle  20  Pass 1  IDiag  1:
 RMSU=  7.95D-09    CP:  1.39D+00  2.65D-01  7.87D-01  7.71D-01  4.62D-01
                    CP:  5.93D-01  6.71D-01  5.49D-01  7.60D-01  5.70D-01
                    CP:  6.01D-01  7.30D-01  8.18D-01  6.89D-01  1.15D+00
                    CP:  1.27D+00  2.33D+00  2.73D+00  1.73D+00
 E= -1871.90032033481     Delta-E=       -0.000000000225 Rises=F Damp=F
 DIIS: error= 5.33D-09 at cycle  20 NSaved=  16.
 NSaved=16 IEnMin=14 EnMin= -1871.90032033498     IErMin=14 ErrMin= 1.92D-09
 ErrMax= 5.33D-09  0.00D+00 EMaxC= 1.00D-01 BMatC= 5.74D-15 BMatP= 2.68D-15
 IDIUse=1 WtCom= 1.00D+00 WtEn= 0.00D+00
 Large coefficients: NSaved= 16 BigCof=    0.00 CofMax=   10.00 Det=-1.99D-15
 Inversion failed.  Reducing to 15 matrices.
 Coeff-Com: -0.390D-06-0.142D-05-0.570D-05-0.240D-04-0.429D-04-0.133D-03
 Coeff-Com: -0.450D-03-0.313D-03 0.146D-02 0.996D-02 0.517D-01 0.173D+00
 Coeff-Com:  0.480D+00 0.433D+00-0.147D+00
 Coeff:     -0.390D-06-0.142D-05-0.570D-05-0.240D-04-0.429D-04-0.133D-03
 Coeff:     -0.450D-03-0.313D-03 0.146D-02 0.996D-02 0.517D-01 0.173D+00
 Coeff:      0.480D+00 0.433D+00-0.147D+00
 Gap=     0.200 Goal=   None    Shift=    0.000
 RMSDP=1.12D-08 MaxDP=2.21D-06 DE=-2.25D-10 OVMax= 2.53D-09

 Cycle  21  Pass 1  IDiag  1:
 Restarting incremental Fock formation.
 E= -1871.90032033618     Delta-E=       -0.000000001375 Rises=F Damp=F
 DIIS: error= 4.21D-08 at cycle  21 NSaved=  16.
 NSaved=16 IEnMin=16 EnMin= -1871.90032033618     IErMin=13 ErrMin= 1.92D-09
 ErrMax= 4.21D-08  0.00D+00 EMaxC= 1.00D-01 BMatC= 3.54D-13 BMatP= 2.68D-15
 IDIUse=1 WtCom= 1.00D+00 WtEn= 0.00D+00
 Large coefficients: NSaved= 16 BigCof=    0.00 CofMax=   10.00 Det=-1.99D-15
 Inversion failed.  Reducing to 15 matrices.
 Coeff-Com: -0.556D-06-0.474D-05-0.257D-04-0.494D-04-0.140D-03-0.435D-03
 Coeff-Com: -0.233D-03 0.163D-02 0.978D-02 0.486D-01 0.160D+00 0.455D+00
 Coeff-Com:  0.452D+00-0.132D+00 0.567D-02
 Coeff:     -0.556D-06-0.474D-05-0.257D-04-0.494D-04-0.140D-03-0.435D-03
 Coeff:     -0.233D-03 0.163D-02 0.978D-02 0.486D-01 0.160D+00 0.455D+00
 Coeff:      0.452D+00-0.132D+00 0.567D-02
 Gap=     0.200 Goal=   None    Shift=    0.000
 RMSDP=1.01D-08 MaxDP=1.47D-06 DE=-1.38D-09 OVMax= 3.44D-09

 Cycle  22  Pass 1  IDiag  1:
 RMSU=  9.33D-09    CP:  1.00D+00
 E= -1871.90032033625     Delta-E=       -0.000000000066 Rises=F Damp=F
 DIIS: error= 4.23D-08 at cycle  22 NSaved=  16.
 NSaved=16 IEnMin=16 EnMin= -1871.90032033625     IErMin=12 ErrMin= 1.92D-09
 ErrMax= 4.23D-08  0.00D+00 EMaxC= 1.00D-01 BMatC= 3.48D-13 BMatP= 2.68D-15
 IDIUse=1 WtCom= 1.00D+00 WtEn= 0.00D+00
 Large coefficients: NSaved= 16 BigCof=    0.00 CofMax=   10.00 Det=-7.05D-16
 Inversion failed.  Reducing to 15 matrices.
 Coeff-Com: -0.227D-05-0.160D-04-0.329D-04-0.115D-03-0.394D-03-0.203D-03
 Coeff-Com:  0.167D-02 0.995D-02 0.495D-01 0.162D+00 0.452D+00 0.467D+00
 Coeff-Com: -0.150D+00-0.409D+00 0.418D+00
 Coeff:     -0.227D-05-0.160D-04-0.329D-04-0.115D-03-0.394D-03-0.203D-03
 Coeff:      0.167D-02 0.995D-02 0.495D-01 0.162D+00 0.452D+00 0.467D+00
 Coeff:     -0.150D+00-0.409D+00 0.418D+00
 Gap=     0.200 Goal=   None    Shift=    0.000
 RMSDP=8.94D-09 MaxDP=1.28D-06 DE=-6.64D-11 OVMax= 4.69D-09

 Cycle  23  Pass 1  IDiag  1:
 RMSU=  7.39D-09    CP:  1.00D+00  1.49D+00
 E= -1871.90032033616     Delta-E=        0.000000000086 Rises=F Damp=F
 DIIS: error= 4.28D-08 at cycle  23 NSaved=  16.
 NSaved=16 IEnMin=15 EnMin= -1871.90032033625     IErMin=11 ErrMin= 1.92D-09
 ErrMax= 4.28D-08  0.00D+00 EMaxC= 1.00D-01 BMatC= 3.51D-13 BMatP= 2.68D-15
 IDIUse=1 WtCom= 1.00D+00 WtEn= 0.00D+00
 Large coefficients: NSaved= 16 BigCof=    0.00 CofMax=   10.00 Det=-5.20D-16
 Inversion failed.  Reducing to 15 matrices.
 Coeff-Com: -0.580D-05-0.117D-04-0.678D-04-0.256D-03-0.641D-04 0.150D-02
 Coeff-Com:  0.858D-02 0.440D-01 0.151D+00 0.445D+00 0.494D+00-0.154D+00
 Coeff-Com: -0.392D+00 0.477D+00-0.751D-01
 Coeff:     -0.580D-05-0.117D-04-0.678D-04-0.256D-03-0.641D-04 0.150D-02
 Coeff:      0.858D-02 0.440D-01 0.151D+00 0.445D+00 0.494D+00-0.154D+00
 Coeff:     -0.392D+00 0.477D+00-0.751D-01
 Gap=     0.200 Goal=   None    Shift=    0.000
 RMSDP=2.93D-09 MaxDP=5.11D-07 DE= 8.64D-11 OVMax= 9.72D-10

 SCF Done:  E(RB3LYP) =  -1871.90032034     A.U. after   23 cycles
            NFock= 23  Conv=0.29D-08     -V/T= 2.0042
 KE= 1.864090246227D+03 PE=-1.094263998467D+04 EE= 3.934399533865D+03
 Leave Link  502 at Thu Aug 18 21:21:29 2022, MaxMem=    78643200 cpu:      6697.0
 (Enter /home/software/gaussian//09.d01/l508.exe)
 QCSCF skips out because SCF is already converged.
 Leave Link  508 at Thu Aug 18 21:21:29 2022, MaxMem=    78643200 cpu:         0.0
 (Enter /home/software/gaussian//09.d01/l601.exe)
 Copying SCF densities to generalized density rwf, IOpCl= 0 IROHF=0.

 **********************************************************************

            Population analysis using the SCF density.

 **********************************************************************

 Alpha  occ. eigenvalues --  -89.06106 -38.44999 -19.19671 -19.17338 -19.14819
 Alpha  occ. eigenvalues --  -19.12420 -19.12204 -19.11391 -19.11275 -10.34587
 Alpha  occ. eigenvalues --  -10.32152 -10.25272 -10.24810 -10.22597 -10.21714
 Alpha  occ. eigenvalues --  -10.19045 -10.18148 -10.17457 -10.17435 -10.17125
 Alpha  occ. eigenvalues --  -10.16982 -10.16460 -10.16292 -10.16019 -10.15800
 Alpha  occ. eigenvalues --  -10.15233 -10.15207 -10.15091 -10.13406  -8.11885
 Alpha  occ. eigenvalues --   -6.08128  -6.08110  -6.08043  -2.21101  -1.14961
 Alpha  occ. eigenvalues --   -1.14804  -1.14740  -1.12450  -1.10073  -1.04096
 Alpha  occ. eigenvalues --   -1.02984  -1.02007  -0.93721  -0.91951  -0.84668
 Alpha  occ. eigenvalues --   -0.83277  -0.81646  -0.79533  -0.78018  -0.75695
 Alpha  occ. eigenvalues --   -0.74132  -0.72988  -0.72245  -0.70401  -0.66962
 Alpha  occ. eigenvalues --   -0.65622  -0.63016  -0.62766  -0.61036  -0.60270
 Alpha  occ. eigenvalues --   -0.58665  -0.58298  -0.57009  -0.56530  -0.55455
 Alpha  occ. eigenvalues --   -0.54192  -0.52586  -0.51165  -0.50093  -0.49136
 Alpha  occ. eigenvalues --   -0.48934  -0.48004  -0.47293  -0.46588  -0.46292
 Alpha  occ. eigenvalues --   -0.45480  -0.44857  -0.44544  -0.44208  -0.43620
 Alpha  occ. eigenvalues --   -0.43234  -0.42903  -0.42727  -0.42087  -0.41426
 Alpha  occ. eigenvalues --   -0.41180  -0.40587  -0.40282  -0.39999  -0.39414
 Alpha  occ. eigenvalues --   -0.38903  -0.38783  -0.37739  -0.37450  -0.37280
 Alpha  occ. eigenvalues --   -0.36147  -0.35707  -0.35624  -0.35023  -0.34764
 Alpha  occ. eigenvalues --   -0.34528  -0.33875  -0.33630  -0.33504  -0.33289
[...]
 05593,0.00250453,-0.00835696,-0.00050823,0.00350514,0.00202624,0.00667
 341,-0.00172493,-0.00254741,-0.00363386,0.00188690,-0.00135001,-0.0019
 4504,-0.00059251,0.00030625,0.00078954,0.00030233,0.00023892,-0.000092
 48,-0.00004874,0.00002860,-0.00007346,0.00003834,-0.00004027,-0.000152
 94,-0.00019244,-0.00009488,0.00003117,-0.00003357,0.00000091,0.0000649
 2,0.00003393,-0.00004886,-0.00001125,0.00004635,-0.00005352,-0.0000365
 2,-0.00000989,0.00002174,-0.00004729,0.00004070,0.00000867,0.00011425,
 -0.00009551,-0.00004244,0.00000243,-0.00000687,0.00003434,-0.00009306,
 -0.00000902,0.00002246,-0.00000925,0.00009215,0.00013968,0.00000020,0.
 00000324,0.00000133,0.00001344,-0.00000591,-0.00000734,-0.00003225,-0.
 00010646,-0.00006206,-0.00000338,0.00003017,0.00000105,0.00000202,0.00
 000639,0.00000703,0.00000408,0.00004378,0.00004755,0.00000364,0.000007
 33,-0.00000042,-0.00000251,-0.00000499,-0.00000860,-0.00002070,-0.0000
 3071,-0.00002036,0.00000339,0.00000041,0.00000570,-0.00002769,0.000005
 13,0.00000225,0.00000308,0.00001855,0.00000185,0.00869527,-0.08828859,
 0.00440884,-0.01281944,0.01453140,0.00139583,-0.01865539,0.08195906,0.
 00003699,-0.00002571,-0.00003135,-0.00002043,0.00000002,0.00002065,0.0
 0001394,-0.00001325,0.00000532,0.00000606,0.00003831,0.00002212,0.0000
 1695,0.00002299,0.00012553,-0.00005378,0.00002487,0.00001637,-0.000018
 68,-0.00003534,-0.00000421,0.00014399,-0.00010635,-0.00025416,-0.00000
 068,0.00013454,0.00008253,0.00003715,-0.00006176,0.00005729,-0.0000335
 9,0.00003125,0.00026118,-0.00004771,0.00004993,0.00002542,-0.00007260,
 -0.00008906,0.00000120,0.00035227,-0.00010342,-0.00026173,0.00022705,0
 .00004050,-0.00030984,-0.00027649,0.00022555,-0.00040724,-0.00010481,0
 .00003412,0.00031662,0.00009390,0.00017657,0.00009962,0.00060957,-0.00
 039995,-0.00003051,-0.00005468,0.00005843,0.00006176,-0.00019910,0.000
 25062,0.00008486,-0.00011002,-0.00024399,-0.00042014,-0.00203006,0.000
 32080,-0.00046220,0.00021637,-0.00005698,0.00009867,0.00010062,0.00002
 187,0.00012045,0.00267539,-0.00207653,0.00003930,-0.00281927,0.0041529
 4,0.00103863,0.00243125,-0.00062181,-0.00323537,0.00062762,0.00070602,
 0.00113594,0.00003854,-0.00014401,0.00001727,0.00024577,0.00003982,-0.
 00008636,-0.02457367,-0.00189998,-0.00192298,-0.00030178,0.00025803,-0
 .00011979,0.00980838,-0.00115645,-0.00484810,-0.00357607,0.00048554,-0
 .00048243,-0.00407103,-0.00247561,0.00174909,0.00130932,0.00050050,0.0
 0045532,-0.00021641,-0.00014171,0.00001007,-0.00007561,0.00010475,0.00
 002057,-0.00022535,-0.00026512,-0.00035873,0.00002664,-0.00004313,-0.0
 0010253,-0.00016908,0.00002476,-0.00015257,0.00001919,-0.00015504,-0.0
 0013068,0.00004211,0.00003256,0.00008682,-0.00000706,-0.00021160,0.000
 05857,-0.00020798,0.00019304,-0.00001143,-0.00003596,0.00000842,0.0001
 3476,0.00011797,0.00008655,-0.00000995,-0.00008617,0.00018779,0.000258
 40,0.00000665,-0.00002167,-0.00000489,0.00008971,0.00000382,0.00007789
 ,-0.00003519,-0.00006521,-0.00012846,-0.00000398,0.00001785,-0.0000221
 4,-0.00004335,-0.00002482,0.00006810,-0.00001805,0.00005228,0.00005799
 ,0.00000327,-0.00000344,-0.00000201,0.00001601,-0.00000208,0.00002249,
 -0.00001847,-0.00001229,-0.00003089,-0.00000317,-0.00000698,0.00002150
 ,-0.00002302,0.00000700,0.00000392,0.00000203,0.00000642,-0.00000493,-
 0.09795655,0.00417533,-0.11515389,0.02509961,0.00393274,0.01601939,0.1
 1532960,-0.02353975,0.10683659,-0.00002814,-0.00001696,0.00001803,-0.0
 0004653,-0.00000798,-0.00001795,0.00001422,0.00001225,-0.00000693,0.00
 001524,0.00000467,0.00000463,0.00005787,0.00001433,-0.00001801,-0.0000
 2795,0.00001425,0.00000945,-0.00000242,-0.00000825,-0.00000311,-0.0000
 1484,-0.00005953,0.00000990,0.00000758,0.00003792,0.00004958,0.0000104
 6,0.00000818,0.00000146,0.00009189,0.00011829,0.00002080,-0.00010379,0
 .00005624,0.00001237,0.00001437,-0.00002384,-0.00000916,0.00016610,-0.
 00042000,-0.00018896,0.00017013,0.00019624,0.00009981,-0.00007615,-0.0
 0006571,-0.00010242,-0.00009646,0.00010668,0.00006168,0.00001962,-0.00
 005333,0.00002910,0.00031704,-0.00015072,-0.00012107,-0.00008413,0.000
 04498,-0.00001828,-0.00011566,0.00025441,-0.00002456,-0.00005125,-0.00
 034011,0.00028618,0.00034408,-0.00006883,-0.00016660,-0.00001071,0.000
 08591,0.00004972,0.00005321,-0.00005715,-0.00003332,-0.00007822,0.0013
 5175,0.00022219,-0.00178580,-0.00432993,-0.00182136,-0.00002345,0.0028
 9476,0.00220288,0.00073620,-0.00082553,-0.00111416,0.00017881,0.000406
 93,-0.00032998,-0.00078272,0.00040117,-0.00013222,0.00794188,0.0004490
 8,0.00127087,0.00039357,-0.00077949,-0.00079713,-0.00254774,0.00332371
 ,0.00061804,0.00168484,-0.00182227,0.00007131,0.00070975,-0.00042555,0
 .00009824,0.00010628,0.00018864,-0.00002146,0.00002824,-0.00005700,0.0
 0001583,0.00000063,0.00002818,-0.00003763,0.00004249,0.00030824,0.0000
 2135,0.00012705,-0.00010083,0.00007158,0.00001324,-0.00003008,0.000038
 48,0.00003313,0.00016640,-0.00000933,-0.00011498,-0.00011827,-0.000005
 89,0.00017737,0.00021655,-0.00008639,0.00012091,-0.00008855,-0.0001107
 9,-0.00000861,-0.00007880,0.00004885,-0.00008639,-0.00002866,0.0000068
 5,0.00007890,-0.00005315,0.00000848,-0.00005821,-0.00007042,0.00000615
 ,-0.00001611,0.00002285,-0.00003100,-0.00000323,0.00004672,-0.00002120
 ,0.00002460,-0.00004941,0.00000628,0.00002038,0.00000424,-0.00001051,0
 .00003985,0.00000935,0.00002196,-0.00001794,-0.00002819,-0.00000157,-0
 .00000777,0.00000866,-0.00001110,-0.00001101,0.00000074,-0.00001927,0.
 00001052,0.00000374,0.00001033,-0.00004154,-0.00000389,-0.00000882,0.0
 0001403,-0.00000635,0.00000678,-0.09331971,0.04418699,-0.02141297,0.01
 033407,-0.02383996,0.01603467,-0.01057805,0.03968265,-0.02244677,0.107
 46529,0.00005131,-0.00000889,-0.00002879,0.00004967,0.00000467,0.00002
 189,-0.00001769,0.00001824,-0.00000478,-0.00002628,-0.00000172,0.00002
 015,-0.00007238,-0.00004137,0.00004476,0.00001212,0.00000391,0.0000004
 9,0.00003914,0.00004248,-0.00002655,0.00007933,-0.00003497,-0.00005886
 ,-0.00003022,-0.00003639,0.00001515,-0.00004895,0.00006808,-0.00003103
 ,-0.00011585,-0.00013698,0.00002198,0.00006587,-0.00000979,0.00000517,
 0.00008246,0.00009127,-0.00005156,0.00001926,0.00009772,0.00009969,-0.
 00018611,-0.00016392,0.00001611,-0.00015235,-0.00006680,0.00000054,0.0
 0017803,-0.00005711,-0.00006563,-0.00001909,0.00015497,0.00012074,-0.0
 0027615,0.00026732,0.00006189,0.00019296,-0.00005901,0.00007003,0.0000
 3319,-0.00005386,-0.00005542,-0.00007877,0.00002592,-0.00022931,-0.000
 45054,-0.00001963,0.00016172,0.00002112,-0.00002479,-0.00002139,0.0001
 4758,0.00004529,-0.00005303,0.00068360,0.00190692,-0.00015821,-0.00428
 138,-0.00582806,-0.00069182,0.00150639,0.00568197,0.00130967,0.0004221
 4,-0.00123813,0.00080129,0.00034160,0.00087198,-0.00073051,0.00049949,
 -0.00051932,-0.00157705,0.00344796,-0.01811350,0.01633544,-0.00127060,
 -0.00400873,-0.00672731,0.01070346,-0.00155532,0.00354590,-0.00419589,
 0.00235738,-0.00300233,-0.00388172,-0.00157777,-0.00052418,0.00188081,
 0.00090169,0.00048981,-0.00021354,-0.00011760,0.00002834,-0.00021489,0
 .00000321,-0.00009768,-0.00028434,-0.00045765,-0.00014533,0.00008763,-
 0.00006386,0.00000737,0.00030990,0.00005011,-0.00005659,-0.00004470,0.
 00036366,-0.00011876,-0.00019396,-0.00003983,0.00004111,-0.00010179,0.
 00007509,-0.00002471,0.00041115,-0.00029350,-0.00008622,0.00006427,0.0
 0003194,0.00003247,-0.00029033,-0.00004232,0.00004902,-0.00000119,0.00
 024629,0.00027535,-0.00001140,0.00000475,0.00000239,0.00000539,-0.0000
 2156,-0.00005105,-0.00008067,-0.00028432,-0.00012401,-0.00000345,0.000
 07073,0.00000995,0.00002169,0.00002839,0.00000087,0.00001154,0.0001004
 0,0.00011338,0.00000769,0.00001669,-0.00000149,-0.00001242,-0.00001336
 ,-0.00003039,-0.00004957,-0.00007634,-0.00004830,0.00000990,0.00000460
 ,0.00000955,-0.00006904,0.00001263,0.00000455,0.00000778,0.00004608,0.
 00000739,0.04053011,-0.34193787,0.11546060,0.00305569,-0.00653264,0.01
 167572,0.01137753,-0.00051897,0.01196933,-0.05778266,0.37780011,0.0000
 1156,-0.00001008,-0.00001321,-0.00001507,-0.00000059,0.00000618,0.0000
 0896,-0.00001138,0.00000455,0.00000503,0.00001896,0.00000722,0.0000173
 5,0.00002389,0.00004500,-0.00002487,0.00001175,0.00000745,-0.00001498,
 -0.00002555,0.00000314,0.00006776,-0.00004620,-0.00009781,0.00000487,0
 .00006566,0.00003420,0.00002554,-0.00004187,0.00003563,-0.00000695,0.0
 0010695,0.00024108,-0.00008503,0.00002817,0.00000559,-0.00005739,-0.00
 006950,0.00000426,0.00022618,-0.00027958,-0.00033150,0.00016954,0.0002
 0517,-0.00000119,-0.00004925,0.00002336,-0.00015337,-0.00007789,0.0000
 5021,0.00012621,0.00005149,0.00005486,-0.00000440,0.00032029,-0.000255
 22,-0.00011822,-0.00008225,0.00006886,0.00002085,-0.00009077,0.0000924
 9,0.00003673,0.00001136,-0.00015757,0.00017833,-0.00098529,0.00012708,
 -0.00051268,0.00014546,-0.00002337,0.00008756,0.00004806,-0.00000193,0
 .00007920,0.00240765,-0.00197228,0.00073891,-0.00254439,0.00312038,-0.
 00128436,0.00192711,-0.00206742,0.00054641,-0.00072676,0.00110033,-0.0
 0091955,0.00052576,-0.00159130,0.00076425,-0.00009617,-0.00127689,0.00
 256837,0.00240242,-0.01108301,0.00529035,-0.00030781,-0.00286659,-0.00
 204598,0.00118002,0.00404047,-0.00330154,0.00026348,-0.00277543,0.0012
 6286,-0.00164127,-0.00187736,0.00219482,0.00054647,0.00006220,-0.00003
 444,-0.00008871,-0.00005935,-0.00001932,0.00001833,0.00007149,0.000087
 72,-0.00005338,-0.00003668,-0.00026580,-0.00001352,0.00001532,-0.00012
 258,-0.00029631,0.00006294,-0.00017656,0.00001764,-0.00036503,-0.00004
 901,0.00016823,0.00008761,0.00008730,-0.00006856,-0.00028192,0.0001523
 0,-0.00036026,0.00025607,0.00000256,-0.00005535,0.00001675,0.00009229,
 0.00022307,0.00009711,-0.00003527,-0.00008831,0.00005427,0.00010408,0.
 00001696,-0.00000051,-0.00000535,0.00008810,0.00000390,0.00010563,0.00
 000727,0.00002591,-0.00005561,-0.00000776,0.00000911,-0.00003276,-0.00
 005574,-0.00003897,0.00006766,-0.00003250,0.00000810,-0.00000003,0.000
 00593,0.00000273,0.00000011,0.00002230,-0.00000028,0.00003761,0.000005
 00,0.00001121,-0.00000298,-0.00001050,-0.00001049,0.00001452,0.0000155
 3,0.00000399,0.00000499,-0.00000503,-0.00000479,-0.00001139,-0.0176471
 1,0.11190118,-0.13441825,0.00023796,0.02996594,-0.00000189,-0.01330710
 ,0.02222254,0.00661836,0.02919535,-0.14775445,0.12700668,-0.00000304,0
 .00001849,-0.00000795,0.00003820,0.00000860,0.00001330,-0.00000335,-0.
 00004111,0.00002104,-0.00000675,0.00000437,-0.00002816,-0.00002678,0.0
 0002380,-0.00002491,0.00003736,-0.00003595,-0.00000825,-0.00005728,-0.
 00003748,0.00003942,-0.00011259,0.00014302,0.00006574,0.00003735,0.000
 00095,-0.00014399,0.00005890,-0.00011764,0.00004161,0.00003929,0.00015
 607,-0.00013225,0.00007635,-0.00012776,-0.00001246,-0.00018642,-0.0000
 8098,0.00013537,-0.00033675,0.00041136,0.00033758,0.00024117,0.0001705
 8,-0.00039733,0.00027164,0.00000623,-0.00014505,-0.00007501,-0.0001162
 4,0.00007313,-0.00004236,-0.00008304,-0.00006382,0.00006557,-0.0001231
 3,-0.00005479,-0.00008083,0.00006920,-0.00004336,-0.00004044,-0.000070
 93,0.00006268,0.00012336,-0.00000210,0.00008438,0.00027337,0.00029284,
 0.00011720,-0.00006406,-0.00011117,-0.00006931,-0.00011661,0.00007991,
 0.00022954,-0.00056607,-0.00190366,-0.00026203,0.00440943,0.00464170,0
 .00061354,-0.00598911,0.00153231,0.00387338,-0.00028375,-0.00096177,0.
 00062548,-0.00033350,0.00025498,0.00003700,-0.00012199,-0.00029222,-0.
 00067486,-0.00025232,0.00119636,-0.00088358,0.00016080,0.00040856,0.00
 047892,-0.00128303,-0.00060208,0.00025428,0.00030820,0.00025939,0.0002
 0377,0.00055047,0.00065070,-0.00015288,-0.00037891,-0.00026917,-0.0001
 2150,0.00003186,0.00005583,-0.00002494,0.00003207,-0.00002768,0.000027
 43,0.00003620,-0.00002785,0.00003654,-0.00004759,0.00004757,-0.0000160
 1,-0.00001958,-0.00000852,-0.00000369,-0.00001037,-0.00008187,0.000032
 32,0.00006587,0.00006275,-0.00000350,-0.00005229,-0.00007440,0.0000413
 7,-0.00005904,0.00005641,0.00001974,-0.00000604,0.00001792,-0.00003020
 ,0.00005373,0.00000798,-0.00000477,-0.00002364,-0.00003143,-0.00005697
 ,0.00002153,0.00003775,-0.00000719,-0.00000311,-0.00001055,0.00001275,
 0.00001386,0.00000140,0.00003816,-0.00000797,0.00002007,-0.00000271,-0
 .00000947,-0.00000349,-0.00000102,-0.00002233,-0.00002401,-0.00002654,
 0.00000828,0.00001761,0.00000044,0.00000288,-0.00000432,0.00000618,0.0
 0001194,0.00000461,0.00001629,-0.00000764,-0.00000262,-0.00000891,0.00
 003258,0.00000116,0.00000586,-0.00000873,0.00000201,-0.00000446,-0.005
 57990,-0.02224976,0.00709625,0.00061956,0.00304280,-0.00155597,-0.0066
 2269,0.00021378,0.00019275,-0.02142440,-0.00189986,-0.00149172,0.03664
 389,-0.00008381,-0.00000218,0.00005083,-0.00006315,-0.00000371,-0.0000
 3810,0.00001704,-0.00001315,-0.00000029,0.00003268,-0.00000261,-0.0000
 2819,0.00009589,0.00007862,-0.00011165,-0.00001451,-0.00001200,0.00000
 144,-0.00002993,-0.00004071,0.00003384,-0.00012377,-0.00001020,0.00014
 226,0.00004455,0.00002335,0.00000204,0.00001706,-0.00002068,-0.0000003
 6,0.00019391,0.00028911,-0.00011389,-0.00014707,0.00002938,0.00000535,
 0.00000080,-0.00005921,0.00004228,0.00012925,-0.00053445,-0.00026786,0
 .00025600,0.00003815,0.00035987,-0.00011778,-0.00004989,0.00006837,-0.
 00007756,0.00016014,-0.00001194,-0.00000832,-0.00012212,-0.00001102,0.
 00014490,-0.00006011,0.00002507,-0.00007586,-0.00000238,-0.00005683,-0
 .00000255,0.00010109,-0.00003384,-0.00003274,-0.00008865,0.00013646,0.
 00123016,-0.00010139,-0.00014035,-0.00009687,0.00012638,0.00005955,-0.
 00001415,-0.00006581,-0.00007874,-0.00175163,0.00214698,-0.00000470,0.
 00096159,-0.00812500,-0.00396077,0.00409052,-0.00702086,-0.00751108,-0
 .00035316,0.00010664,-0.00035781,0.00015310,0.00017142,0.00006260,-0.0
 0017119,0.00013513,-0.00025137,0.00109416,-0.00074670,0.00072123,-0.00
 000077,-0.00023696,-0.00011412,-0.00196380,-0.00033216,-0.00014128,0.0
 0098109,-0.00009076,0.00035382,0.00109533,0.00071562,-0.00010334,-0.00
 061243,-0.00021738,-0.00007899,0.00006827,0.00004738,-0.00001336,0.000
 05104,-0.00000995,0.00002388,0.00004715,0.00003949,0.00004959,-0.00004
 678,0.00003216,-0.00000944,-0.00005213,-0.00001663,0.00002233,0.000015
 29,-0.00007852,0.00004083,0.00005096,0.00003254,-0.00001825,-0.0000071
 2,-0.00004141,0.00001023,-0.00009338,0.00007133,0.00003681,-0.00001244
 ,0.00000872,-0.00002827,0.00008339,0.00000602,-0.00000986,-0.00001561,
 -0.00005112,-0.00008802,0.00001272,0.00001140,-0.00000261,-0.00000875,
 0.00000104,0.00001047,0.00001928,0.00006645,0.00004751,-0.00000389,-0.
 00001230,-0.00000125,-0.00000574,-0.00000507,-0.00000447,-0.00001439,-
 0.00003069,-0.00003936,0.00000182,-0.00000122,0.00000097,0.00000301,0.
 00000283,0.00000851,0.00001758,0.00002466,0.00001939,-0.00000509,-0.00
 000128,-0.00000706,0.00003156,-0.00000228,0.00000079,-0.00000652,-0.00
 001504,-0.00000284,-0.02035070,-0.00521158,0.00122854,0.00332749,0.000
 23647,-0.00065601,-0.00054339,-0.01267010,0.00562724,-0.00286432,-0.00
 743866,0.00096857,0.01550369,0.03884245,-0.00005507,0.00003644,0.00004
 439,0.00000189,-0.00000511,-0.00002254,-0.00000210,-0.00000056,-0.0000
 0684,0.00000475,-0.00003185,-0.00003455,0.00001225,-0.00003507,-0.0001
 0737,0.00004486,-0.00002730,-0.00001468,-0.00000846,0.00002120,0.00001
 976,-0.00019000,0.00017756,0.00024401,0.00002588,-0.00008748,-0.000105
 79,0.00000867,-0.00000966,-0.00005324,0.00005616,-0.00006431,-0.000245
 87,0.00005429,-0.00003893,-0.00002572,0.00005659,0.00006808,0.00003566
 ,-0.00038061,0.00030232,0.00038715,-0.00001604,-0.00003081,0.00010632,
 0.00003025,-0.00010720,0.00000122,0.00001133,-0.00000816,-0.00007705,-
 0.00006752,-0.00011438,0.00001405,-0.00011835,0.00012651,0.00004706,-0
 .00005530,0.00001729,-0.00006907,0.00005080,-0.00004781,-0.00006986,0.
 00007783,0.00007466,0.00003187,0.00166795,-0.00039280,0.00055241,-0.00
 017022,0.00009584,-0.00011671,0.00003180,-0.00004297,-0.00010530,-0.00
 240594,0.00523271,-0.00015532,-0.00103079,-0.01225491,-0.00174747,0.00
 651640,-0.00448431,-0.01120084,0.00034430,-0.00012057,0.00014068,0.000
 29643,0.00034847,-0.00014422,-0.00066872,-0.00017052,-0.00048727,-0.00
 153317,-0.00069546,0.00000807,0.00006160,0.00013753,-0.00016231,0.0005
 3772,-0.00086278,0.00004115,-0.00013499,0.00045189,-0.00050957,0.00027
 596,0.00030610,-0.00023366,-0.00014943,0.00005228,0.00010039,0.0000292
 4,0.00000971,0.00001083,0.00000473,-0.00000188,-0.00002064,-0.00001206
 ,-0.00000086,0.00003132,0.00001168,-0.00000257,0.00002021,0.00001569,0
 .00000803,0.00002609,0.00000071,0.00002270,0.00001619,-0.00001506,-0.0
 0002343,-0.00002013,0.00002160,0.00003676,-0.00002012,0.00003420,-0.00
 002769,0.00002759,0.00000945,0.00001054,-0.00003303,-0.00002244,-0.000
 01248,0.00000116,0.00001555,-0.00001380,-0.00000443,-0.00000461,-0.000
 00506,0.00000228,-0.00001780,0.00000275,-0.00002833,-0.00000388,0.0000
 0928,0.00000976,0.00000279,-0.00000854,0.00001018,0.00001313,0.0000091
 1,-0.00001888,0.00000854,-0.00000537,0.00000545,-0.00000248,-0.0000040
 6,0.00000021,-0.00000479,0.00000235,-0.00001324,-0.00000105,0.00000020
 ,0.00000275,0.00000338,0.00000486,-0.00000695,-0.00000425,-0.00000256,
 -0.00000179,0.00000200,-0.00000237,0.00000503,0.00928787,0.00412567,0.
 00805190,-0.00112901,-0.00017784,-0.00145275,-0.00156644,0.00434704,-0
 .00714111,-0.00148931,-0.00025307,-0.00465592,-0.00836830,0.00413663,0
 .01911739\\0.00000019,-0.00000294,-0.00000015,0.00000022,-0.00000312,-
 0.00000007,0.00000006,-0.00000322,-0.00000072,0.00000033,-0.00000322,0
 .00000033,0.00000012,-0.00000200,-0.00000015,-0.00000003,-0.00000174,-
 0.00000062,0.00000025,-0.00000174,0.00000042,0.00000007,-0.00000171,-0
 .00000024,0.00000021,-0.00000197,0.00000023,-0.00000007,-0.00000198,-0
 .00000082,0.,-0.00000077,-0.00000027,-0.00000017,-0.00000053,-0.000000
 75,0.00000012,-0.00000052,0.00000030,-0.00000007,-0.00000043,-0.000000
 30,0.00000012,-0.00000064,0.00000024,-0.00000021,-0.00000071,-0.000001
 05,-0.00000035,-0.00000078,-0.00000154,-0.00000031,-0.00000018,-0.0000
 0122,-0.00000014,-0.00000146,-0.00000094,-0.00000005,-0.00000201,-0.00
 000081,-0.00000028,-0.00000159,-0.00000150,-0.00000002,-0.00000137,-0.
 00000047,-0.00000008,0.00000051,-0.00000021,-0.00000025,0.00000078,-0.
 00000074,0.00000003,0.00000070,0.00000033,-0.00000011,0.00000091,-0.00
 000013,0.00000007,0.00000099,0.00000059,0.00000027,0.00000082,0.000001
 18,0.00000005,0.00000139,0.00000055,-0.00000012,0.00000189,0.00000012,
 0.00000017,0.00000163,0.00000114,0.,0.00000078,0.00000026,-0.00000012,
 0.00000046,-0.00000029,-0.00000006,0.00000126,0.00000014,0.,0.00000184
 ,0.00000054,-0.00000021,0.00000091,-0.00000047,-0.00000022,0.00000124,
 -0.00000065,-0.00000043,0.00000113,-0.00000126,-0.00000029,0.00000192,
 -0.00000051,-0.00000011,0.00000085,-0.00000012,0.00000006,0.00000093,0
 .00000050,-0.00000009,-0.00000009,-0.00000034,-0.00000012,-0.00000031,
 -0.00000056,-0.00000020,-0.00000018,-0.00000081,0.00000016,-0.00000062
 ,0.00000039,0.00000027,-0.00000058,0.00000084,0.00000015,-0.00000128,0
 .00000019,0.00000020,-0.00000045,0.00000065,-0.00000018,0.00000134,-0.
 00000027,-0.00000034,0.00000129,-0.00000091,-0.00000019,0.00000199,-0.
 00000014,-0.00000002,0.00000107,0.00000022,0.00000015,0.00000108,0.000
 00085,-0.00000002,0.00000044,0.00000006,-0.00000010,0.00000163,0.00000
 009,-0.00000027,0.00000164,-0.00000055,-0.00000011,0.00000227,0.000000
 26,0.00000003,0.00000138,0.00000057,0.00000005,0.00000075,0.00000040,-
 0.00000001,0.00000179,0.00000047,0.00000022,0.00000138,0.00000121,0.00
 000029,-0.00000004,0.00000101,0.00000025,-0.00000048,0.00000075,0.0000
 0025,-0.00000056,0.00000087,0.00000045,0.00000031,0.00000181,0.0000005
 3,-0.00000003,0.00000207\\\@


 CHEMISTRY BEGAN BY SAYING IT WOULD CHANGE THE BASER
 METALS INTO GOLD.  BY NOT DOING THAT IT HAS DONE MUCH
 GREATER THINGS.  --  RALPH WALDO EMERSON
 Job cpu time:       2 days 22 hours  9 minutes 43.1 seconds.
 File lengths (MBytes):  RWF=   8240 Int=      0 D2E=      0 Chk=     61 Scr=      2
 Normal termination of Gaussian 09 at Fri Aug 19 08:36:19 2022.
