 Entering Gaussian System, Link 0=g09
 Initial command:
 /home/software/gaussian//09.d01/l1.exe "/home/tntech.edu/jbthorn42/tmp/tmp.exYYBsblma/Gau-524959.inp" -scrdir="/home/tntech.edu/jbthorn42/tmp/tmp.exYYBsblma/"
 Default is to use a total of  16 processors:
                               16 via shared-memory
                                1 via Linda
 Entering Link 1 = /home/software/gaussian//09.d01/l1.exe PID=    524960.
  
 Copyright (c) 1988,1990,1992,1993,1995,1998,2003,2009,2013,
            Gaussian, Inc.  All Rights Reserved.
  
 This is part of the Gaussian(R) 09 program.  It is based on
 the Gaussian(R) 03 system (copyright 2003, Gaussian, Inc.),
 the Gaussian(R) 98 system (copyright 1998, Gaussian, Inc.),
 the Gaussian(R) 94 system (copyright 1995, Gaussian, Inc.),
 the Gaussian 92(TM) system (copyright 1992, Gaussian, Inc.),
 the Gaussian 90(TM) system (copyright 1990, Gaussian, Inc.),
 the Gaussian 88(TM) system (copyright 1988, Gaussian, Inc.),
 the Gaussian 86(TM) system (copyright 1986, Carnegie Mellon
 University), and the Gaussian 82(TM) system (copyright 1983,
 Carnegie Mellon University). Gaussian is a federally registered
 trademark of Gaussian, Inc.
  
 This software contains proprietary and confidential information,
 including trade secrets, belonging to Gaussian, Inc.
  
 This software is provided under written license and may be
 used, copied, transmitted, or stored only in accord with that
 written license.
  
 The following legend is applicable only to US Government
 contracts under FAR:
  
                    RESTRICTED RIGHTS LEGEND
  
 Use, reproduction and disclosure by the US Government is
 subject to restrictions as set forth in subparagraphs (a)
 and (c) of the Commercial Computer Software - Restricted
 Rights clause in FAR 52.227-19.
  
 Gaussian, Inc.
 340 Quinnipiac St., Bldg. 40, Wallingford CT 06492
  
  
 ---------------------------------------------------------------
 Warning -- This program may not be used in any manner that
 competes with the business of Gaussian, Inc. or will provide
 assistance to any competitor of Gaussian, Inc.  The licensee
 of this program is prohibited from giving any competitor of
 Gaussian, Inc. access to this program.  By using this program,
 the user acknowledges that Gaussian, Inc. is engaged in the
 business of creating and licensing software in the field of
 computational chemistry and represents and warrants to the
 licensee that it is not a competitor of Gaussian, Inc. and that
 it will not use this program in any manner prohibited above.
 ---------------------------------------------------------------
  

 Cite this work as:
 Gaussian 09, Revision D.01,
 M. J. Frisch, G. W. Trucks, H. B. Schlegel, G. E. Scuseria, 
 M. A. Robb, J. R. Cheeseman, G. Scalmani, V. Barone, B. Mennucci, 
 G. A. Petersson, H. Nakatsuji, M. Caricato, X. Li, H. P. Hratchian, 
 A. F. Izmaylov, J. Bloino, G. Zheng, J. L. Sonnenberg, M. Hada, 
 M. Ehara, K. Toyota, R. Fukuda, J. Hasegawa, M. Ishida, T. Nakajima, 
 Y. Honda, O. Kitao, H. Nakai, T. Vreven, J. A. Montgomery, Jr., 
 J. E. Peralta, F. Ogliaro, M. Bearpark, J. J. Heyd, E. Brothers, 
 K. N. Kudin, V. N. Staroverov, T. Keith, R. Kobayashi, J. Normand, 
 K. Raghavachari, A. Rendell, J. C. Burant, S. S. Iyengar, J. Tomasi, 
 M. Cossi, N. Rega, J. M. Millam, M. Klene, J. E. Knox, J. B. Cross, 
 V. Bakken, C. Adamo, J. Jaramillo, R. Gomperts, R. E. Stratmann, 
 O. Yazyev, A. J. Austin, R. Cammi, C. Pomelli, J. W. Ochterski, 
 R. L. Martin, K. Morokuma, V. G. Zakrzewski, G. A. Voth, 
 P. Salvador, J. J. Dannenberg, S. Dapprich, A. D. Daniels, 
 O. Farkas, J. B. Foresman, J. V. Ortiz, J. Cioslowski, 
 and D. J. Fox, Gaussian, Inc., Wallingford CT, 2013.
 
 ******************************************
 Gaussian 09:  ES64L-G09RevD.01 24-Apr-2013
                31-Aug-2022 
 ******************************************
 %chk=NaMon.chk
 %nprocshared=16
 Will use up to   16 processors via shared memory.
 %mem=120MW
 ----------------------------------------------------------------------
 #p opt=tight freq=(raman,savenormalmodes) b3lyp/6-311+g(d,p) nosymm in
 t=(grid=ultrafine) guess=read scf=(xqc,maxcycles=2048,tight) geom=allc
 heck
 ----------------------------------------------------------------------
 1/7=10,14=-1,18=20,19=15,26=4,29=7,38=1/1,3;
 2/9=110,12=2,15=1,40=1/2;
 3/5=4,6=6,7=111,11=2,14=-4,16=1,25=1,30=1,71=1,74=-5,75=-5,116=-2/1,2,3;
 4/5=1/1;
 5/5=2,7=2048,8=3,13=1,32=2,38=6/2,8;
 6/7=2,8=2,9=2,10=2,28=1/1;
 7/30=1,92=1/1,2,3,16;
 1/7=10,14=-1,18=20,19=15,26=4/3(2);
 2/9=110,15=1/2;
 99//99;
 2/9=110,15=1/2;
 3/5=4,6=6,7=111,11=2,14=-2,16=1,25=1,30=1,71=1,74=-5,75=-5/1,2,3;
 4/5=5,16=3,69=1/1;
 5/5=2,7=2048,8=3,13=1,32=2,38=5/2,8;
 7/30=1,92=1/1,2,3,16;
 1/7=10,14=-1,18=20,19=15,26=4/3(-5);
 2/9=110,15=1/2;
 6/7=2,8=2,9=2,10=2,19=2,28=1/1;
 99/9=1/99;
 Leave Link    1 at Wed Aug 31 13:10:35 2022, MaxMem=   125829120 cpu:         0.9
 (Enter /home/software/gaussian//09.d01/l101.exe)
 Structure from the checkpoint file:  "NaMon.chk"
 --------------
 Na Montelukast
 --------------
 Charge =  0 Multiplicity = 1
 Redundant internal coordinates found in file.
 C,0,-7.4346662504,-2.6864842459,-1.9225065678
 H,0,-7.6067994402,-3.749107232,-2.0961265867
 H,0,-7.8587986666,-2.1287857035,-2.7620707462
 H,0,-7.9718466857,-2.4057190105,-1.0124199064
 C,0,-5.9364611437,-2.3531476013,-1.7847097209
 C,0,-5.1790927782,-2.659731101,-3.0855817603
 H,0,-5.2009505565,-3.7227252759,-3.324928352
 H,0,-4.1347737969,-2.3534684626,-2.9937545568
 H,0,-5.6352884224,-2.1130022315,-3.9163033167
 C,0,-5.3134936753,-3.1475882402,-0.6052937594
 C,0,-5.4033960276,-4.5468671509,-0.7336888968
 H,0,-5.8818037382,-4.9678506742,-1.6099763443
 C,0,-4.9048680093,-5.4280280038,0.2149656382
 H,0,-5.0009840169,-6.4973422888,0.0644104101
 C,0,-4.2910573823,-4.9196925016,1.3550801536
 H,0,-3.8987148384,-5.5821096353,2.1183667078
 C,0,-4.1950007039,-3.5446605122,1.5040102935
 H,0,-3.7251709699,-3.1431245973,2.3962625987
 C,0,-4.6852574082,-2.6305440562,0.5528422601
 C,0,-4.4385664504,-1.1672716526,0.8873158579
 H,0,-4.4074825015,-1.0739036882,1.9746516698
 H,0,-5.2518997895,-0.5239985664,0.5678577853
 C,0,-3.1066884325,-0.6450070841,0.3089040232
 H,0,-3.0002480573,-0.9880438397,-0.7253865998
 H,0,-2.2714492173,-1.0882688375,0.8612734326
 C,0,-2.9814593395,0.8889455686,0.2772840891
 H,0,-3.8130508593,1.2807484414,-0.3071553085
 C,0,-1.6945521502,1.3544779997,-0.3730926818
 C,0,-1.7390274946,2.150696441,-1.5200592364
 H,0,-2.6992852909,2.459108165,-1.9203681106
 C,0,-0.5584320552,2.5731533977,-2.1388467162
 H,0,-0.6089627262,3.1999253353,-3.0225670553
 C,0,0.6756800613,2.2054600212,-1.6271413237
 H,0,1.5793826735,2.5480025175,-2.1162014668
 C,0,0.7538994155,1.4065688113,-0.4697078965
 C,0,-0.4417804209,1.0024408515,0.1394338962
 H,0,-0.3890640599,0.4118683683,1.0483145719
 C,0,2.0219554767,0.9865828642,0.1321233048
 H,0,1.9101049599,0.4390494652,1.0642714529
 C,0,3.2583122218,1.2034675302,-0.3531290393
 H,0,3.3992658732,1.7328225067,-1.2893284618
 C,0,4.5218268217,0.781333004,0.2549830409
 N,0,5.613582576,1.0815000392,-0.4385250445
 C,0,6.8293780237,0.7251197305,0.0522520198
 C,0,6.9879676878,0.0364879474,1.2928903931
 C,0,8.2884434164,-0.300343105,1.7368497447
 H,0,8.4074688372,-0.8232729098,2.6799957465
 C,0,9.3957605301,0.0263497421,0.989966808
 H,0,10.3925419658,-0.2291000601,1.3250671088
 C,0,9.2231115919,0.707717402,-0.2353402967
 C,0,7.9825835588,1.0554840363,-0.706491283
 H,0,7.8532017136,1.5775078672,-1.6450813733
 Cl,0,10.6563852539,1.1139935691,-1.1711881382
 C,0,5.8053982384,-0.2684884843,2.0135438655
 H,0,5.8776267473,-0.7883547018,2.9634954426
 C,0,4.5890859978,0.0961496428,1.5078619777
 H,0,3.6828706555,-0.1295258104,2.0545333525
 S,0,-3.2131856138,1.6267896495,1.976630249
 C,0,-3.8407594678,3.309601529,1.513706524
 H,0,-3.6779804379,3.4231328311,0.4428408711
 H,0,-3.2053311729,4.0325177424,2.0285206057
 C,0,-5.3008129416,3.576922892,1.8481407475
 C,0,-5.6902986686,5.0383257989,1.8767749349
 H,0,-6.6742786542,5.3049816868,1.5090494788
 H,0,-4.9242084096,5.7755418207,1.6637300439
 C,0,-5.589647158,4.2608231704,3.1685141517
 H,0,-4.7546209734,4.4730718362,3.8269231853
 H,0,-6.5071819919,4.0038949345,3.6858598154
 C,0,-6.3394630445,2.5672934968,1.3864087302
 H,0,-7.3427903043,2.9424412635,1.615908888
 H,0,-6.2369946424,1.6407176248,1.9581478459
 C,0,-6.3541320314,2.1651485671,-0.0897273441
 O,0,-5.6613096332,2.7976759575,-0.9363698727
 O,0,-7.0702898993,1.1575015295,-0.3932519713
 O,0,-5.8299908266,-0.9216215702,-1.6546335344
 H,0,-6.4131599911,-0.5771112259,-0.9510092689
 Na,0,-6.0903350796,1.2103494651,-2.4743781788
 Recover connectivity data from disk.
 NAtoms=     77 NQM=       77 NQMF=       0 NMMI=      0 NMMIF=      0
                NMic=       0 NMicF=      0.
                    Isotopes and Nuclear Properties:
 (Nuclear quadrupole moments (NQMom) in fm**2, nuclear magnetic moments (NMagM)
  in nuclear magnetons)

  Atom         1           2           3           4           5           6           7           8           9          10
 IAtWgt=          12           1           1           1          12          12           1           1           1          12
 AtmWgt=  12.0000000   1.0078250   1.0078250   1.0078250  12.0000000  12.0000000   1.0078250   1.0078250   1.0078250  12.0000000
 NucSpn=           0           1           1           1           0           0           1           1           1           0
 AtZEff=  -3.6000000  -1.0000000  -1.0000000  -1.0000000  -3.6000000  -3.6000000  -1.0000000  -1.0000000  -1.0000000  -3.6000000
 NQMom=    0.0000000   0.0000000   0.0000000   0.0000000   0.0000000   0.0000000   0.0000000   0.0000000   0.0000000   0.0000000
 NMagM=    0.0000000   2.7928460   2.7928460   2.7928460   0.0000000   0.0000000   2.7928460   2.7928460   2.7928460   0.0000000
 AtZNuc=   6.0000000   1.0000000   1.0000000   1.0000000   6.0000000   6.0000000   1.0000000   1.0000000   1.0000000   6.0000000

  Atom        11          12          13          14          15          16          17          18          19          20
 IAtWgt=          12           1          12           1          12           1          12           1          12          12
 AtmWgt=  12.0000000   1.0078250  12.0000000   1.0078250  12.0000000   1.0078250  12.0000000   1.0078250  12.0000000  12.0000000
 NucSpn=           0           1           0           1           0           1           0           1           0           0
 AtZEff=  -3.6000000  -1.0000000  -3.6000000  -1.0000000  -3.6000000  -1.0000000  -3.6000000  -1.0000000  -3.6000000  -3.6000000
 NQMom=    0.0000000   0.0000000   0.0000000   0.0000000   0.0000000   0.0000000   0.0000000   0.0000000   0.0000000   0.0000000
 NMagM=    0.0000000   2.7928460   0.0000000   2.7928460   0.0000000   2.7928460   0.0000000   2.7928460   0.0000000   0.0000000
 AtZNuc=   6.0000000   1.0000000   6.0000000   1.0000000   6.0000000   1.0000000   6.0000000   1.0000000   6.0000000   6.0000000

  Atom        21          22          23          24          25          26          27          28          29          30
 IAtWgt=           1           1          12           1           1          12           1          12          12           1
 AtmWgt=   1.0078250   1.0078250  12.0000000   1.0078250   1.0078250  12.0000000   1.0078250  12.0000000  12.0000000   1.0078250
 NucSpn=           1           1           0           1           1           0           1           0           0           1
 AtZEff=  -1.0000000  -1.0000000  -3.6000000  -1.0000000  -1.0000000  -3.6000000  -1.0000000  -3.6000000  -3.6000000  -1.0000000
 NQMom=    0.0000000   0.0000000   0.0000000   0.0000000   0.0000000   0.0000000   0.0000000   0.0000000   0.0000000   0.0000000
 NMagM=    2.7928460   2.7928460   0.0000000   2.7928460   2.7928460   0.0000000   2.7928460   0.0000000   0.0000000   2.7928460
 AtZNuc=   1.0000000   1.0000000   6.0000000   1.0000000   1.0000000   6.0000000   1.0000000   6.0000000   6.0000000   1.0000000

  Atom        31          32          33          34          35          36          37          38          39          40
 IAtWgt=          12           1          12           1          12          12           1          12           1          12
 AtmWgt=  12.0000000   1.0078250  12.0000000   1.0078250  12.0000000  12.0000000   1.0078250  12.0000000   1.0078250  12.0000000
 NucSpn=           0           1           0           1           0           0           1           0           1           0
 AtZEff=  -3.6000000  -1.0000000  -3.6000000  -1.0000000  -3.6000000  -3.6000000  -1.0000000  -3.6000000  -1.0000000  -3.6000000
 NQMom=    0.0000000   0.0000000   0.0000000   0.0000000   0.0000000   0.0000000   0.0000000   0.0000000   0.0000000   0.0000000
 NMagM=    0.0000000   2.7928460   0.0000000   2.7928460   0.0000000   0.0000000   2.7928460   0.0000000   2.7928460   0.0000000
 AtZNuc=   6.0000000   1.0000000   6.0000000   1.0000000   6.0000000   6.0000000   1.0000000   6.0000000   1.0000000   6.0000000

  Atom        41          42          43          44          45          46          47          48          49          50
 IAtWgt=           1          12          14          12          12          12           1          12           1          12
 AtmWgt=   1.0078250  12.0000000  14.0030740  12.0000000  12.0000000  12.0000000   1.0078250  12.0000000   1.0078250  12.0000000
 NucSpn=           1           0           2           0           0           0           1           0           1           0
 AtZEff=  -1.0000000  -3.6000000  -4.5500000  -3.6000000  -3.6000000  -3.6000000  -1.0000000  -3.6000000  -1.0000000  -3.6000000
 NQMom=    0.0000000   0.0000000   2.0440000   0.0000000   0.0000000   0.0000000   0.0000000   0.0000000   0.0000000   0.0000000
 NMagM=    2.7928460   0.0000000   0.4037610   0.0000000   0.0000000   0.0000000   2.7928460   0.0000000   2.7928460   0.0000000
 AtZNuc=   1.0000000   6.0000000   7.0000000   6.0000000   6.0000000   6.0000000   1.0000000   6.0000000   1.0000000   6.0000000

  Atom        51          52          53          54          55          56          57          58          59          60
 IAtWgt=          12           1          35          12           1          12           1          32          12           1
 AtmWgt=  12.0000000   1.0078250  34.9688527  12.0000000   1.0078250  12.0000000   1.0078250  31.9720718  12.0000000   1.0078250
 NucSpn=           0           1           3           0           1           0           1           0           0           1
 AtZEff=  -3.6000000  -1.0000000 -14.2400000  -3.6000000  -1.0000000  -3.6000000  -1.0000000 -13.6000000  -3.6000000  -1.0000000
 NQMom=    0.0000000   0.0000000  -8.1650000   0.0000000   0.0000000   0.0000000   0.0000000   0.0000000   0.0000000   0.0000000
 NMagM=    0.0000000   2.7928460   0.8218740   0.0000000   2.7928460   0.0000000   2.7928460   0.0000000   0.0000000   2.7928460
 AtZNuc=   6.0000000   1.0000000  17.0000000   6.0000000   1.0000000   6.0000000   1.0000000  16.0000000   6.0000000   1.0000000

  Atom        61          62          63          64          65          66          67          68          69          70
 IAtWgt=           1          12          12           1           1          12           1           1          12           1
 AtmWgt=   1.0078250  12.0000000  12.0000000   1.0078250   1.0078250  12.0000000   1.0078250   1.0078250  12.0000000   1.0078250
 NucSpn=           1           0           0           1           1           0           1           1           0           1
 AtZEff=  -1.0000000  -3.6000000  -3.6000000  -1.0000000  -1.0000000  -3.6000000  -1.0000000  -1.0000000  -3.6000000  -1.0000000
 NQMom=    0.0000000   0.0000000   0.0000000   0.0000000   0.0000000   0.0000000   0.0000000   0.0000000   0.0000000   0.0000000
 NMagM=    2.7928460   0.0000000   0.0000000   2.7928460   2.7928460   0.0000000   2.7928460   2.7928460   0.0000000   2.7928460
 AtZNuc=   1.0000000   6.0000000   6.0000000   1.0000000   1.0000000   6.0000000   1.0000000   1.0000000   6.0000000   1.0000000

  Atom        71          72          73          74          75          76          77
 IAtWgt=           1          12          16          16          16           1          23
 AtmWgt=   1.0078250  12.0000000  15.9949146  15.9949146  15.9949146   1.0078250  22.9897697
 NucSpn=           1           0           0           0           0           1           3
 AtZEff=  -1.0000000  -3.6000000  -5.6000000  -5.6000000  -5.6000000  -1.0000000 -10.0400000
 NQMom=    0.0000000   0.0000000   0.0000000   0.0000000   0.0000000   0.0000000  10.4000000
 NMagM=    2.7928460   0.0000000   0.0000000   0.0000000   0.0000000   2.7928460   2.2175200
 AtZNuc=   1.0000000   6.0000000   8.0000000   8.0000000   8.0000000   1.0000000  11.0000000
 Leave Link  101 at Wed Aug 31 13:10:35 2022, MaxMem=   125829120 cpu:         0.2
 (Enter /home/software/gaussian//09.d01/l103.exe)

 GradGradGradGradGradGradGradGradGradGradGradGradGradGradGradGradGradGrad
 Berny optimization.
 Initialization pass.
                           ----------------------------
                           !    Initial Parameters    !
                           ! (Angstroms and Degrees)  !
 --------------------------                            --------------------------
 ! Name  Definition              Value          Derivative Info.                !
 --------------------------------------------------------------------------------
 ! R1    R(1,2)                  1.0904         estimate D2E/DX2                !
 ! R2    R(1,3)                  1.0935         estimate D2E/DX2                !
 ! R3    R(1,4)                  1.0935         estimate D2E/DX2                !
 ! R4    R(1,5)                  1.541          estimate D2E/DX2                !
 ! R5    R(5,6)                  1.5362         estimate D2E/DX2                !
 ! R6    R(5,10)                 1.5525         estimate D2E/DX2                !
 ! R7    R(5,75)                 1.4414         estimate D2E/DX2                !
 ! R8    R(6,7)                  1.0898         estimate D2E/DX2                !
 ! R9    R(6,8)                  1.0922         estimate D2E/DX2                !
 ! R10   R(6,9)                  1.0941         estimate D2E/DX2                !
 ! R11   R(10,11)                1.408          estimate D2E/DX2                !
 ! R12   R(10,19)                1.4154         estimate D2E/DX2                !
 ! R13   R(11,12)                1.0835         estimate D2E/DX2                !
 ! R14   R(11,13)                1.3874         estimate D2E/DX2                !
 ! R15   R(13,14)                1.0841         estimate D2E/DX2                !
 ! R16   R(13,15)                1.3911         estimate D2E/DX2                !
 ! R17   R(15,16)                1.0841         estimate D2E/DX2                !
 ! R18   R(15,17)                1.3864         estimate D2E/DX2                !
 ! R19   R(17,18)                1.0854         estimate D2E/DX2                !
 ! R20   R(17,19)                1.4074         estimate D2E/DX2                !
 ! R21   R(19,20)                1.5211         estimate D2E/DX2                !
 ! R22   R(20,21)                1.0918         estimate D2E/DX2                !
 ! R23   R(20,22)                1.0851         estimate D2E/DX2                !
 ! R24   R(20,23)                1.5431         estimate D2E/DX2                !
 ! R25   R(23,24)                1.0949         estimate D2E/DX2                !
 ! R26   R(23,25)                1.0951         estimate D2E/DX2                !
 ! R27   R(23,26)                1.5394         estimate D2E/DX2                !
 ! R28   R(26,27)                1.0893         estimate D2E/DX2                !
 ! R29   R(26,28)                1.5152         estimate D2E/DX2                !
 ! R30   R(26,58)                1.8671         estimate D2E/DX2                !
 ! R31   R(28,29)                1.397          estimate D2E/DX2                !
 ! R32   R(28,36)                1.3986         estimate D2E/DX2                !
 ! R33   R(29,30)                1.0851         estimate D2E/DX2                !
 ! R34   R(29,31)                1.3983         estimate D2E/DX2                !
 ! R35   R(31,32)                1.0846         estimate D2E/DX2                !
 ! R36   R(31,33)                1.3857         estimate D2E/DX2                !
 ! R37   R(33,34)                1.0831         estimate D2E/DX2                !
 ! R38   R(33,35)                1.4085         estimate D2E/DX2                !
 ! R39   R(35,36)                1.4014         estimate D2E/DX2                !
 ! R40   R(35,38)                1.4651         estimate D2E/DX2                !
 ! R41   R(36,37)                1.0852         estimate D2E/DX2                !
 ! R42   R(38,39)                1.0868         estimate D2E/DX2                !
 ! R43   R(38,40)                1.3458         estimate D2E/DX2                !
 ! R44   R(40,41)                1.0847         estimate D2E/DX2                !
 ! R45   R(40,42)                1.4644         estimate D2E/DX2                !
 ! R46   R(42,43)                1.3278         estimate D2E/DX2                !
 ! R47   R(42,56)                1.4296         estimate D2E/DX2                !
 ! R48   R(43,44)                1.3587         estimate D2E/DX2                !
 ! R49   R(44,45)                1.4278         estimate D2E/DX2                !
 ! R50   R(44,51)                1.4194         estimate D2E/DX2                !
 ! R51   R(45,46)                1.4148         estimate D2E/DX2                !
 ! R52   R(45,54)                1.418          estimate D2E/DX2                !
 ! R53   R(46,47)                1.085          estimate D2E/DX2                !
 ! R54   R(46,48)                1.375          estimate D2E/DX2                !
 ! R55   R(48,49)                1.0822         estimate D2E/DX2                !
 ! R56   R(48,50)                1.4126         estimate D2E/DX2                !
 ! R57   R(50,51)                1.3718         estimate D2E/DX2                !
 ! R58   R(50,53)                1.7593         estimate D2E/DX2                !
 ! R59   R(51,52)                1.0818         estimate D2E/DX2                !
 ! R60   R(54,55)                1.0853         estimate D2E/DX2                !
 ! R61   R(54,56)                1.3668         estimate D2E/DX2                !
 ! R62   R(56,57)                1.0821         estimate D2E/DX2                !
 ! R63   R(58,59)                1.8547         estimate D2E/DX2                !
 ! R64   R(59,60)                1.0891         estimate D2E/DX2                !
 ! R65   R(59,61)                1.0915         estimate D2E/DX2                !
 ! R66   R(59,62)                1.5215         estimate D2E/DX2                !
 ! R67   R(62,63)                1.5127         estimate D2E/DX2                !
 ! R68   R(62,66)                1.5148         estimate D2E/DX2                !
 ! R69   R(62,69)                1.5203         estimate D2E/DX2                !
 ! R70   R(63,64)                1.0838         estimate D2E/DX2                !
 ! R71   R(63,65)                1.0843         estimate D2E/DX2                !
 ! R72   R(63,66)                1.511          estimate D2E/DX2                !
 ! R73   R(66,67)                1.0844         estimate D2E/DX2                !
 ! R74   R(66,68)                1.0842         estimate D2E/DX2                !
 ! R75   R(69,70)                1.0955         estimate D2E/DX2                !
 ! R76   R(69,71)                1.0936         estimate D2E/DX2                !
 ! R77   R(69,72)                1.53           estimate D2E/DX2                !
 ! R78   R(72,73)                1.2637         estimate D2E/DX2                !
 ! R79   R(72,74)                1.2729         estimate D2E/DX2                !
 ! R80   R(72,77)                2.5822         estimate D2E/DX2                !
 ! R81   R(73,77)                2.2515         estimate D2E/DX2                !
 ! R82   R(75,76)                0.9767         estimate D2E/DX2                !
 ! R83   R(75,77)                2.2989         estimate D2E/DX2                !
 ! A1    A(2,1,3)              108.2726         estimate D2E/DX2                !
 ! A2    A(2,1,4)              107.7704         estimate D2E/DX2                !
 ! A3    A(2,1,5)              112.242          estimate D2E/DX2                !
 ! A4    A(3,1,4)              108.5127         estimate D2E/DX2                !
 ! A5    A(3,1,5)              109.5981         estimate D2E/DX2                !
 ! A6    A(4,1,5)              110.344          estimate D2E/DX2                !
 ! A7    A(1,5,6)              111.1267         estimate D2E/DX2                !
 ! A8    A(1,5,10)             110.3261         estimate D2E/DX2                !
 ! A9    A(1,5,75)             107.1407         estimate D2E/DX2                !
 ! A10   A(6,5,10)             110.0818         estimate D2E/DX2                !
 ! A11   A(6,5,75)             103.7813         estimate D2E/DX2                !
 ! A12   A(10,5,75)            114.2065         estimate D2E/DX2                !
 ! A13   A(5,6,7)              111.7619         estimate D2E/DX2                !
 ! A14   A(5,6,8)              110.1364         estimate D2E/DX2                !
 ! A15   A(5,6,9)              109.7344         estimate D2E/DX2                !
 ! A16   A(7,6,8)              108.1289         estimate D2E/DX2                !
 ! A17   A(7,6,9)              108.1967         estimate D2E/DX2                !
 ! A18   A(8,6,9)              108.8078         estimate D2E/DX2                !
 ! A19   A(5,10,11)            114.4338         estimate D2E/DX2                !
 ! A20   A(5,10,19)            127.7918         estimate D2E/DX2                !
 ! A21   A(11,10,19)           117.7743         estimate D2E/DX2                !
 ! A22   A(10,11,12)           119.2135         estimate D2E/DX2                !
 ! A23   A(10,11,13)           123.0841         estimate D2E/DX2                !
 ! A24   A(12,11,13)           117.7024         estimate D2E/DX2                !
 ! A25   A(11,13,14)           119.9748         estimate D2E/DX2                !
 ! A26   A(11,13,15)           119.1353         estimate D2E/DX2                !
 ! A27   A(14,13,15)           120.8891         estimate D2E/DX2                !
 ! A28   A(13,15,16)           120.8941         estimate D2E/DX2                !
 ! A29   A(13,15,17)           118.754          estimate D2E/DX2                !
 ! A30   A(16,15,17)           120.351          estimate D2E/DX2                !
 ! A31   A(15,17,18)           119.026          estimate D2E/DX2                !
 ! A32   A(15,17,19)           123.1928         estimate D2E/DX2                !
 ! A33   A(18,17,19)           117.7805         estimate D2E/DX2                !
 ! A34   A(10,19,17)           118.0578         estimate D2E/DX2                !
 ! A35   A(10,19,20)           127.1072         estimate D2E/DX2                !
 ! A36   A(17,19,20)           114.8162         estimate D2E/DX2                !
 ! A37   A(19,20,21)           107.8105         estimate D2E/DX2                !
 ! A38   A(19,20,22)           112.581          estimate D2E/DX2                !
 ! A39   A(19,20,23)           112.5274         estimate D2E/DX2                !
 ! A40   A(21,20,22)           105.2991         estimate D2E/DX2                !
 ! A41   A(21,20,23)           108.6502         estimate D2E/DX2                !
 ! A42   A(22,20,23)           109.6308         estimate D2E/DX2                !
 ! A43   A(20,23,24)           109.3878         estimate D2E/DX2                !
 ! A44   A(20,23,25)           109.4049         estimate D2E/DX2                !
 ! A45   A(20,23,26)           114.5298         estimate D2E/DX2                !
 ! A46   A(24,23,25)           105.9933         estimate D2E/DX2                !
 ! A47   A(24,23,26)           106.5524         estimate D2E/DX2                !
 ! A48   A(25,23,26)           110.5888         estimate D2E/DX2                !
 ! A49   A(23,26,27)           107.8981         estimate D2E/DX2                !
 ! A50   A(23,26,28)           112.5859         estimate D2E/DX2                !
 ! A51   A(23,26,58)           111.4079         estimate D2E/DX2                !
 ! A52   A(27,26,28)           107.9136         estimate D2E/DX2                !
 ! A53   A(27,26,58)           104.5624         estimate D2E/DX2                !
 ! A54   A(28,26,58)           112.0041         estimate D2E/DX2                !
 ! A55   A(26,28,29)           120.0331         estimate D2E/DX2                !
 ! A56   A(26,28,36)           121.7454         estimate D2E/DX2                !
 ! A57   A(29,28,36)           118.2205         estimate D2E/DX2                !
 ! A58   A(28,29,30)           119.5423         estimate D2E/DX2                !
 ! A59   A(28,29,31)           120.575          estimate D2E/DX2                !
 ! A60   A(30,29,31)           119.871          estimate D2E/DX2                !
 ! A61   A(29,31,32)           119.7246         estimate D2E/DX2                !
 ! A62   A(29,31,33)           120.5562         estimate D2E/DX2                !
 ! A63   A(32,31,33)           119.7177         estimate D2E/DX2                !
 ! A64   A(31,33,34)           119.5            estimate D2E/DX2                !
 ! A65   A(31,33,35)           120.2259         estimate D2E/DX2                !
 ! A66   A(34,33,35)           120.269          estimate D2E/DX2                !
 ! A67   A(33,35,36)           118.2515         estimate D2E/DX2                !
 ! A68   A(33,35,38)           123.243          estimate D2E/DX2                !
 ! A69   A(36,35,38)           118.5041         estimate D2E/DX2                !
 ! A70   A(28,36,35)           122.1651         estimate D2E/DX2                !
 ! A71   A(28,36,37)           119.1712         estimate D2E/DX2                !
 ! A72   A(35,36,37)           118.6546         estimate D2E/DX2                !
 ! A73   A(35,38,39)           114.0575         estimate D2E/DX2                !
 ! A74   A(35,38,40)           126.9288         estimate D2E/DX2                !
 ! A75   A(39,38,40)           119.0122         estimate D2E/DX2                !
 ! A76   A(38,40,41)           120.6138         estimate D2E/DX2                !
 ! A77   A(38,40,42)           126.6184         estimate D2E/DX2                !
 ! A78   A(41,40,42)           112.7663         estimate D2E/DX2                !
 ! A79   A(40,42,43)           115.3018         estimate D2E/DX2                !
 ! A80   A(40,42,56)           122.867          estimate D2E/DX2                !
 ! A81   A(43,42,56)           121.831          estimate D2E/DX2                !
 ! A82   A(42,43,44)           119.1966         estimate D2E/DX2                !
 ! A83   A(43,44,45)           122.6681         estimate D2E/DX2                !
 ! A84   A(43,44,51)           118.2211         estimate D2E/DX2                !
 ! A85   A(45,44,51)           119.1108         estimate D2E/DX2                !
 ! A86   A(44,45,46)           119.3128         estimate D2E/DX2                !
 ! A87   A(44,45,54)           116.9167         estimate D2E/DX2                !
 ! A88   A(46,45,54)           123.7704         estimate D2E/DX2                !
 ! A89   A(45,46,47)           119.2323         estimate D2E/DX2                !
 ! A90   A(45,46,48)           120.8773         estimate D2E/DX2                !
 ! A91   A(47,46,48)           119.8904         estimate D2E/DX2                !
 ! A92   A(46,48,49)           121.1629         estimate D2E/DX2                !
 ! A93   A(46,48,50)           119.1654         estimate D2E/DX2                !
 ! A94   A(49,48,50)           119.6717         estimate D2E/DX2                !
 ! A95   A(48,50,51)           122.0542         estimate D2E/DX2                !
 ! A96   A(48,50,53)           118.2442         estimate D2E/DX2                !
 ! A97   A(51,50,53)           119.7015         estimate D2E/DX2                !
 ! A98   A(44,51,50)           119.4795         estimate D2E/DX2                !
 ! A99   A(44,51,52)           118.6167         estimate D2E/DX2                !
 ! A100  A(50,51,52)           121.9038         estimate D2E/DX2                !
 ! A101  A(45,54,55)           119.4948         estimate D2E/DX2                !
 ! A102  A(45,54,56)           119.7843         estimate D2E/DX2                !
 ! A103  A(55,54,56)           120.7208         estimate D2E/DX2                !
 ! A104  A(42,56,54)           119.6028         estimate D2E/DX2                !
 ! A105  A(42,56,57)           120.2181         estimate D2E/DX2                !
 ! A106  A(54,56,57)           120.1787         estimate D2E/DX2                !
 ! A107  A(26,58,59)            99.9847         estimate D2E/DX2                !
 ! A108  A(58,59,60)           106.8233         estimate D2E/DX2                !
 ! A109  A(58,59,61)           106.6316         estimate D2E/DX2                !
 ! A110  A(58,59,62)           115.4193         estimate D2E/DX2                !
 ! A111  A(60,59,61)           107.9209         estimate D2E/DX2                !
 ! A112  A(60,59,62)           109.9518         estimate D2E/DX2                !
 ! A113  A(61,59,62)           109.7915         estimate D2E/DX2                !
 ! A114  A(59,62,63)           114.896          estimate D2E/DX2                !
 ! A115  A(59,62,66)           116.9935         estimate D2E/DX2                !
 ! A116  A(59,62,69)           118.1737         estimate D2E/DX2                !
 ! A117  A(63,62,69)           118.1268         estimate D2E/DX2                !
 ! A118  A(66,62,69)           115.7404         estimate D2E/DX2                !
 ! A119  A(62,63,64)           117.7138         estimate D2E/DX2                !
 ! A120  A(62,63,65)           118.1123         estimate D2E/DX2                !
 ! A121  A(64,63,65)           114.0487         estimate D2E/DX2                !
 ! A122  A(64,63,66)           118.4989         estimate D2E/DX2                !
 ! A123  A(65,63,66)           118.0819         estimate D2E/DX2                !
 ! A124  A(62,66,67)           118.0866         estimate D2E/DX2                !
 ! A125  A(62,66,68)           118.0537         estimate D2E/DX2                !
 ! A126  A(63,66,67)           118.0114         estimate D2E/DX2                !
 ! A127  A(63,66,68)           118.2599         estimate D2E/DX2                !
 ! A128  A(67,66,68)           114.1005         estimate D2E/DX2                !
 ! A129  A(62,69,70)           109.5524         estimate D2E/DX2                !
 ! A130  A(62,69,71)           109.8695         estimate D2E/DX2                !
 ! A131  A(62,69,72)           118.3018         estimate D2E/DX2                !
 ! A132  A(70,69,71)           105.4527         estimate D2E/DX2                !
 ! A133  A(70,69,72)           106.4603         estimate D2E/DX2                !
 ! A134  A(71,69,72)           106.4157         estimate D2E/DX2                !
 ! A135  A(69,72,73)           120.6354         estimate D2E/DX2                !
 ! A136  A(69,72,74)           116.3278         estimate D2E/DX2                !
 ! A137  A(73,72,74)           123.0195         estimate D2E/DX2                !
 ! A138  A(74,72,77)            62.9076         estimate D2E/DX2                !
 ! A139  A(5,75,76)            111.7925         estimate D2E/DX2                !
 ! A140  A(5,75,77)            151.7032         estimate D2E/DX2                !
 ! A141  A(76,75,77)            82.0763         estimate D2E/DX2                !
 ! A142  A(72,77,75)            91.4429         estimate D2E/DX2                !
 ! A143  A(73,77,75)           112.8708         estimate D2E/DX2                !
 ! A144  L(69,72,77,74,-1)     179.2353         estimate D2E/DX2                !
 ! A145  L(69,72,77,74,-2)     190.2457         estimate D2E/DX2                !
 ! D1    D(2,1,5,6)             63.3002         estimate D2E/DX2                !
 ! D2    D(2,1,5,10)           -59.0899         estimate D2E/DX2                !
 ! D3    D(2,1,5,75)           176.0324         estimate D2E/DX2                !
 ! D4    D(3,1,5,6)            -57.043          estimate D2E/DX2                !
 ! D5    D(3,1,5,10)          -179.4332         estimate D2E/DX2                !
 ! D6    D(3,1,5,75)            55.6892         estimate D2E/DX2                !
 ! D7    D(4,1,5,6)           -176.4809         estimate D2E/DX2                !
 ! D8    D(4,1,5,10)            61.129          estimate D2E/DX2                !
 ! D9    D(4,1,5,75)           -63.7486         estimate D2E/DX2                !
 ! D10   D(1,5,6,7)            -63.7063         estimate D2E/DX2                !
 ! D11   D(1,5,6,8)            176.0806         estimate D2E/DX2                !
 ! D12   D(1,5,6,9)             56.3221         estimate D2E/DX2                !
 ! D13   D(10,5,6,7)            58.8252         estimate D2E/DX2                !
 ! D14   D(10,5,6,8)           -61.388          estimate D2E/DX2                !
 ! D15   D(10,5,6,9)           178.8536         estimate D2E/DX2                !
 ! D16   D(75,5,6,7)          -178.547          estimate D2E/DX2                !
 ! D17   D(75,5,6,8)            61.2398         estimate D2E/DX2                !
 ! D18   D(75,5,6,9)           -58.5186         estimate D2E/DX2                !
 ! D19   D(1,5,10,11)           59.8444         estimate D2E/DX2                !
 ! D20   D(1,5,10,19)         -120.0306         estimate D2E/DX2                !
 ! D21   D(6,5,10,11)          -63.1577         estimate D2E/DX2                !
 ! D22   D(6,5,10,19)          116.9673         estimate D2E/DX2                !
 ! D23   D(75,5,10,11)        -179.4173         estimate D2E/DX2                !
 ! D24   D(75,5,10,19)           0.7077         estimate D2E/DX2                !
 ! D25   D(1,5,75,76)           51.7588         estimate D2E/DX2                !
 ! D26   D(1,5,75,77)          -63.6743         estimate D2E/DX2                !
 ! D27   D(6,5,75,76)          169.4051         estimate D2E/DX2                !
 ! D28   D(6,5,75,77)           53.972          estimate D2E/DX2                !
 ! D29   D(10,5,75,76)         -70.7346         estimate D2E/DX2                !
 ! D30   D(10,5,75,77)         173.8323         estimate D2E/DX2                !
 ! D31   D(5,10,11,12)          -0.0278         estimate D2E/DX2                !
 ! D32   D(5,10,11,13)         179.9545         estimate D2E/DX2                !
 ! D33   D(19,10,11,12)        179.8605         estimate D2E/DX2                !
 ! D34   D(19,10,11,13)         -0.1571         estimate D2E/DX2                !
 ! D35   D(5,10,19,17)         179.6476         estimate D2E/DX2                !
 ! D36   D(5,10,19,20)          -2.0199         estimate D2E/DX2                !
 ! D37   D(11,10,19,17)         -0.2238         estimate D2E/DX2                !
 ! D38   D(11,10,19,20)        178.1088         estimate D2E/DX2                !
 ! D39   D(10,11,13,14)       -179.9537         estimate D2E/DX2                !
 ! D40   D(10,11,13,15)          0.352          estimate D2E/DX2                !
 ! D41   D(12,11,13,14)          0.0289         estimate D2E/DX2                !
 ! D42   D(12,11,13,15)       -179.6654         estimate D2E/DX2                !
 ! D43   D(11,13,15,16)        179.4998         estimate D2E/DX2                !
 ! D44   D(11,13,15,17)         -0.1509         estimate D2E/DX2                !
 ! D45   D(14,13,15,16)         -0.1916         estimate D2E/DX2                !
 ! D46   D(14,13,15,17)       -179.8423         estimate D2E/DX2                !
 ! D47   D(13,15,17,18)        179.4362         estimate D2E/DX2                !
 ! D48   D(13,15,17,19)         -0.2402         estimate D2E/DX2                !
 ! D49   D(16,15,17,18)         -0.2164         estimate D2E/DX2                !
 ! D50   D(16,15,17,19)       -179.8928         estimate D2E/DX2                !
 ! D51   D(15,17,19,10)          0.4295         estimate D2E/DX2                !
 ! D52   D(15,17,19,20)       -178.1055         estimate D2E/DX2                !
 ! D53   D(18,17,19,10)       -179.2507         estimate D2E/DX2                !
 ! D54   D(18,17,19,20)          2.2144         estimate D2E/DX2                !
 ! D55   D(10,19,20,21)        152.6262         estimate D2E/DX2                !
 ! D56   D(10,19,20,22)         36.9201         estimate D2E/DX2                !
 ! D57   D(10,19,20,23)        -87.5796         estimate D2E/DX2                !
 ! D58   D(17,19,20,21)        -28.995          estimate D2E/DX2                !
 ! D59   D(17,19,20,22)       -144.7011         estimate D2E/DX2                !
 ! D60   D(17,19,20,23)         90.7993         estimate D2E/DX2                !
 ! D61   D(19,20,23,24)         44.5889         estimate D2E/DX2                !
 ! D62   D(19,20,23,25)        -71.1101         estimate D2E/DX2                !
 ! D63   D(19,20,23,26)        164.0992         estimate D2E/DX2                !
 ! D64   D(21,20,23,24)        163.8953         estimate D2E/DX2                !
 ! D65   D(21,20,23,25)         48.1963         estimate D2E/DX2                !
 ! D66   D(21,20,23,26)        -76.5944         estimate D2E/DX2                !
 ! D67   D(22,20,23,24)        -81.519          estimate D2E/DX2                !
 ! D68   D(22,20,23,25)        162.782          estimate D2E/DX2                !
 ! D69   D(22,20,23,26)         37.9913         estimate D2E/DX2                !
 ! D70   D(20,23,26,27)        -57.6173         estimate D2E/DX2                !
 ! D71   D(20,23,26,28)       -176.5913         estimate D2E/DX2                !
 ! D72   D(20,23,26,58)         56.6139         estimate D2E/DX2                !
 ! D73   D(24,23,26,27)         63.4672         estimate D2E/DX2                !
 ! D74   D(24,23,26,28)        -55.5069         estimate D2E/DX2                !
 ! D75   D(24,23,26,58)        177.6983         estimate D2E/DX2                !
 ! D76   D(25,23,26,27)        178.2195         estimate D2E/DX2                !
 ! D77   D(25,23,26,28)         59.2455         estimate D2E/DX2                !
 ! D78   D(25,23,26,58)        -67.5494         estimate D2E/DX2                !
 ! D79   D(23,26,28,29)        119.2035         estimate D2E/DX2                !
 ! D80   D(23,26,28,36)        -60.423          estimate D2E/DX2                !
 ! D81   D(27,26,28,29)          0.2385         estimate D2E/DX2                !
 ! D82   D(27,26,28,36)       -179.388          estimate D2E/DX2                !
 ! D83   D(58,26,28,29)       -114.3208         estimate D2E/DX2                !
 ! D84   D(58,26,28,36)         66.0527         estimate D2E/DX2                !
 ! D85   D(23,26,58,59)       -153.2014         estimate D2E/DX2                !
 ! D86   D(27,26,58,59)        -36.912          estimate D2E/DX2                !
 ! D87   D(28,26,58,59)         79.6867         estimate D2E/DX2                !
 ! D88   D(26,28,29,30)          2.0257         estimate D2E/DX2                !
 ! D89   D(26,28,29,31)       -179.2184         estimate D2E/DX2                !
 ! D90   D(36,28,29,30)       -178.3348         estimate D2E/DX2                !
 ! D91   D(36,28,29,31)          0.4211         estimate D2E/DX2                !
 ! D92   D(26,28,36,35)        178.7424         estimate D2E/DX2                !
 ! D93   D(26,28,36,37)         -2.3698         estimate D2E/DX2                !
 ! D94   D(29,28,36,35)         -0.8907         estimate D2E/DX2                !
 ! D95   D(29,28,36,37)        177.9972         estimate D2E/DX2                !
 ! D96   D(28,29,31,32)       -179.3402         estimate D2E/DX2                !
 ! D97   D(28,29,31,33)          0.2095         estimate D2E/DX2                !
 ! D98   D(30,29,31,32)         -0.5884         estimate D2E/DX2                !
 ! D99   D(30,29,31,33)        178.9613         estimate D2E/DX2                !
 ! D100  D(29,31,33,34)       -179.581          estimate D2E/DX2                !
 ! D101  D(29,31,33,35)         -0.3969         estimate D2E/DX2                !
 ! D102  D(32,31,33,34)         -0.0313         estimate D2E/DX2                !
 ! D103  D(32,31,33,35)        179.1529         estimate D2E/DX2                !
 ! D104  D(31,33,35,36)         -0.0522         estimate D2E/DX2                !
 ! D105  D(31,33,35,38)       -179.6054         estimate D2E/DX2                !
 ! D106  D(34,33,35,36)        179.1257         estimate D2E/DX2                !
 ! D107  D(34,33,35,38)         -0.4275         estimate D2E/DX2                !
 ! D108  D(33,35,36,28)          0.7089         estimate D2E/DX2                !
 ! D109  D(33,35,36,37)       -178.1844         estimate D2E/DX2                !
 ! D110  D(38,35,36,28)       -179.7163         estimate D2E/DX2                !
 ! D111  D(38,35,36,37)          1.3903         estimate D2E/DX2                !
 ! D112  D(33,35,38,39)        175.4711         estimate D2E/DX2                !
 ! D113  D(33,35,38,40)         -4.9733         estimate D2E/DX2                !
 ! D114  D(36,35,38,39)         -4.081          estimate D2E/DX2                !
 ! D115  D(36,35,38,40)        175.4746         estimate D2E/DX2                !
 ! D116  D(35,38,40,41)         -0.5321         estimate D2E/DX2                !
 ! D117  D(35,38,40,42)        179.9463         estimate D2E/DX2                !
 ! D118  D(39,38,40,41)        179.0038         estimate D2E/DX2                !
 ! D119  D(39,38,40,42)         -0.5178         estimate D2E/DX2                !
 ! D120  D(38,40,42,43)        178.1097         estimate D2E/DX2                !
 ! D121  D(38,40,42,56)         -2.0179         estimate D2E/DX2                !
 ! D122  D(41,40,42,43)         -1.4438         estimate D2E/DX2                !
 ! D123  D(41,40,42,56)        178.4286         estimate D2E/DX2                !
 ! D124  D(40,42,43,44)       -179.9295         estimate D2E/DX2                !
 ! D125  D(56,42,43,44)          0.1966         estimate D2E/DX2                !
 ! D126  D(40,42,56,54)        179.9342         estimate D2E/DX2                !
 ! D127  D(40,42,56,57)         -0.2802         estimate D2E/DX2                !
 ! D128  D(43,42,56,54)         -0.2016         estimate D2E/DX2                !
 ! D129  D(43,42,56,57)        179.584          estimate D2E/DX2                !
 ! D130  D(42,43,44,45)         -0.0514         estimate D2E/DX2                !
 ! D131  D(42,43,44,51)        179.9589         estimate D2E/DX2                !
 ! D132  D(43,44,45,46)       -179.9933         estimate D2E/DX2                !
 ! D133  D(43,44,45,54)         -0.0875         estimate D2E/DX2                !
 ! D134  D(51,44,45,46)         -0.0037         estimate D2E/DX2                !
 ! D135  D(51,44,45,54)        179.9021         estimate D2E/DX2                !
 ! D136  D(43,44,51,50)       -179.9873         estimate D2E/DX2                !
 ! D137  D(43,44,51,52)          0.0094         estimate D2E/DX2                !
 ! D138  D(45,44,51,50)          0.0226         estimate D2E/DX2                !
 ! D139  D(45,44,51,52)       -179.9807         estimate D2E/DX2                !
 ! D140  D(44,45,46,47)        179.9754         estimate D2E/DX2                !
 ! D141  D(44,45,46,48)         -0.0189         estimate D2E/DX2                !
 ! D142  D(54,45,46,47)          0.0765         estimate D2E/DX2                !
 ! D143  D(54,45,46,48)       -179.9178         estimate D2E/DX2                !
 ! D144  D(44,45,54,55)       -179.8009         estimate D2E/DX2                !
 ! D145  D(44,45,54,56)          0.0807         estimate D2E/DX2                !
 ! D146  D(46,45,54,55)          0.1003         estimate D2E/DX2                !
 ! D147  D(46,45,54,56)        179.9818         estimate D2E/DX2                !
 ! D148  D(45,46,48,49)       -179.9944         estimate D2E/DX2                !
 ! D149  D(45,46,48,50)          0.022          estimate D2E/DX2                !
 ! D150  D(47,46,48,49)          0.0114         estimate D2E/DX2                !
 ! D151  D(47,46,48,50)       -179.9722         estimate D2E/DX2                !
 ! D152  D(46,48,50,51)         -0.0024         estimate D2E/DX2                !
 ! D153  D(46,48,50,53)        179.9911         estimate D2E/DX2                !
 ! D154  D(49,48,50,51)       -179.9863         estimate D2E/DX2                !
 ! D155  D(49,48,50,53)          0.0072         estimate D2E/DX2                !
 ! D156  D(48,50,51,44)         -0.02           estimate D2E/DX2                !
 ! D157  D(48,50,51,52)        179.9834         estimate D2E/DX2                !
 ! D158  D(53,50,51,44)        179.9866         estimate D2E/DX2                !
 ! D159  D(53,50,51,52)         -0.0099         estimate D2E/DX2                !
 ! D160  D(45,54,56,42)          0.0541         estimate D2E/DX2                !
 ! D161  D(45,54,56,57)       -179.7316         estimate D2E/DX2                !
 ! D162  D(55,54,56,42)        179.9341         estimate D2E/DX2                !
 ! D163  D(55,54,56,57)          0.1485         estimate D2E/DX2                !
 ! D164  D(26,58,59,60)        -11.8919         estimate D2E/DX2                !
 ! D165  D(26,58,59,61)       -127.0942         estimate D2E/DX2                !
 ! D166  D(26,58,59,62)        110.6824         estimate D2E/DX2                !
 ! D167  D(58,59,62,63)        161.7948         estimate D2E/DX2                !
 ! D168  D(58,59,62,66)         94.402          estimate D2E/DX2                !
 ! D169  D(58,59,62,69)        -51.2604         estimate D2E/DX2                !
 ! D170  D(60,59,62,63)        -77.3129         estimate D2E/DX2                !
 ! D171  D(60,59,62,66)       -144.7056         estimate D2E/DX2                !
 ! D172  D(60,59,62,69)         69.632          estimate D2E/DX2                !
 ! D173  D(61,59,62,63)         41.2768         estimate D2E/DX2                !
 ! D174  D(61,59,62,66)        -26.116          estimate D2E/DX2                !
 ! D175  D(61,59,62,69)       -171.7783         estimate D2E/DX2                !
 ! D176  D(59,62,63,64)        143.3332         estimate D2E/DX2                !
 ! D177  D(59,62,63,65)         -0.0392         estimate D2E/DX2                !
 ! D178  D(69,62,63,64)         -3.628          estimate D2E/DX2                !
 ! D179  D(69,62,63,65)       -147.0004         estimate D2E/DX2                !
 ! D180  D(59,62,66,67)         -3.3318         estimate D2E/DX2                !
 ! D181  D(59,62,66,68)       -147.3158         estimate D2E/DX2                !
 ! D182  D(69,62,66,67)        143.1629         estimate D2E/DX2                !
 ! D183  D(69,62,66,68)         -0.8211         estimate D2E/DX2                !
 ! D184  D(59,62,69,70)       -174.654          estimate D2E/DX2                !
 ! D185  D(59,62,69,71)         69.9424         estimate D2E/DX2                !
 ! D186  D(59,62,69,72)        -52.4622         estimate D2E/DX2                !
 ! D187  D(63,62,69,70)        -28.7797         estimate D2E/DX2                !
 ! D188  D(63,62,69,71)       -144.1834         estimate D2E/DX2                !
 ! D189  D(63,62,69,72)         93.412          estimate D2E/DX2                !
 ! D190  D(66,62,69,70)         39.2627         estimate D2E/DX2                !
 ! D191  D(66,62,69,71)        -76.141          estimate D2E/DX2                !
 ! D192  D(66,62,69,72)        161.4544         estimate D2E/DX2                !
 ! D193  D(64,63,66,67)       -144.6642         estimate D2E/DX2                !
 ! D194  D(64,63,66,68)         -0.4642         estimate D2E/DX2                !
 ! D195  D(65,63,66,67)         -0.0519         estimate D2E/DX2                !
 ! D196  D(65,63,66,68)        144.1481         estimate D2E/DX2                !
 ! D197  D(62,69,72,73)        -10.4184         estimate D2E/DX2                !
 ! D198  D(62,69,72,74)        168.1089         estimate D2E/DX2                !
 ! D199  D(70,69,72,73)        113.3233         estimate D2E/DX2                !
 ! D200  D(70,69,72,74)        -68.1494         estimate D2E/DX2                !
 ! D201  D(71,69,72,73)       -134.5484         estimate D2E/DX2                !
 ! D202  D(71,69,72,74)         43.9789         estimate D2E/DX2                !
 ! D203  D(62,69,77,75)        119.8256         estimate D2E/DX2                !
 ! D204  D(70,69,77,75)       -112.4094         estimate D2E/DX2                !
 ! D205  D(71,69,77,75)         -0.3492         estimate D2E/DX2                !
 ! D206  D(74,72,77,75)        -49.8463         estimate D2E/DX2                !
 ! D207  D(5,75,77,72)         152.6358         estimate D2E/DX2                !
 ! D208  D(5,75,77,73)         173.2204         estimate D2E/DX2                !
 ! D209  D(76,75,77,72)         30.4829         estimate D2E/DX2                !
 ! D210  D(76,75,77,73)         51.0675         estimate D2E/DX2                !
 --------------------------------------------------------------------------------
 Trust Radius=3.00D-01 FncErr=1.00D-07 GrdErr=1.00D-06
 Number of steps in this run=    448 maximum allowed number of steps=    462.
 GradGradGradGradGradGradGradGradGradGradGradGradGradGradGradGradGradGrad

 Leave Link  103 at Wed Aug 31 13:10:35 2022, MaxMem=   125829120 cpu:         0.1
 (Enter /home/software/gaussian//09.d01/l202.exe)
 Symmetry turned off by external request.
 Stoichiometry    C35H35ClNNaO3S
 Framework group  C1[X(C35H35ClNNaO3S)]
 Deg. of freedom   225
 Full point group                 C1      NOp   1
                          Input orientation:                          
 ---------------------------------------------------------------------
 Center     Atomic      Atomic             Coordinates (Angstroms)
 Number     Number       Type             X           Y           Z
 ---------------------------------------------------------------------
      1          6           0       -7.434666   -2.686484   -1.922507
      2          1           0       -7.606799   -3.749107   -2.096127
      3          1           0       -7.858799   -2.128786   -2.762071
      4          1           0       -7.971847   -2.405719   -1.012420
      5          6           0       -5.936461   -2.353148   -1.784710
      6          6           0       -5.179093   -2.659731   -3.085582
      7          1           0       -5.200951   -3.722725   -3.324928
      8          1           0       -4.134774   -2.353468   -2.993755
      9          1           0       -5.635288   -2.113002   -3.916303
     10          6           0       -5.313494   -3.147588   -0.605294
     11          6           0       -5.403396   -4.546867   -0.733689
     12          1           0       -5.881804   -4.967851   -1.609976
     13          6           0       -4.904868   -5.428028    0.214966
     14          1           0       -5.000984   -6.497342    0.064410
     15          6           0       -4.291057   -4.919693    1.355080
     16          1           0       -3.898715   -5.582110    2.118367
     17          6           0       -4.195001   -3.544661    1.504010
     18          1           0       -3.725171   -3.143125    2.396263
     19          6           0       -4.685257   -2.630544    0.552842
     20          6           0       -4.438566   -1.167272    0.887316
     21          1           0       -4.407483   -1.073904    1.974652
     22          1           0       -5.251900   -0.523999    0.567858
     23          6           0       -3.106688   -0.645007    0.308904
     24          1           0       -3.000248   -0.988044   -0.725387
     25          1           0       -2.271449   -1.088269    0.861273
     26          6           0       -2.981459    0.888946    0.277284
     27          1           0       -3.813051    1.280748   -0.307155
     28          6           0       -1.694552    1.354478   -0.373093
     29          6           0       -1.739027    2.150696   -1.520059
     30          1           0       -2.699285    2.459108   -1.920368
     31          6           0       -0.558432    2.573153   -2.138847
     32          1           0       -0.608963    3.199925   -3.022567
     33          6           0        0.675680    2.205460   -1.627141
     34          1           0        1.579383    2.548003   -2.116201
     35          6           0        0.753899    1.406569   -0.469708
     36          6           0       -0.441780    1.002441    0.139434
     37          1           0       -0.389064    0.411868    1.048315
     38          6           0        2.021955    0.986583    0.132123
     39          1           0        1.910105    0.439049    1.064271
     40          6           0        3.258312    1.203468   -0.353129
     41          1           0        3.399266    1.732823   -1.289328
     42          6           0        4.521827    0.781333    0.254983
     43          7           0        5.613583    1.081500   -0.438525
     44          6           0        6.829378    0.725120    0.052252
     45          6           0        6.987968    0.036488    1.292890
     46          6           0        8.288443   -0.300343    1.736850
     47          1           0        8.407469   -0.823273    2.679996
     48          6           0        9.395761    0.026350    0.989967
     49          1           0       10.392542   -0.229100    1.325067
     50          6           0        9.223112    0.707717   -0.235340
     51          6           0        7.982584    1.055484   -0.706491
     52          1           0        7.853202    1.577508   -1.645081
     53         17           0       10.656385    1.113994   -1.171188
     54          6           0        5.805398   -0.268488    2.013544
     55          1           0        5.877627   -0.788355    2.963495
     56          6           0        4.589086    0.096150    1.507862
     57          1           0        3.682871   -0.129526    2.054533
     58         16           0       -3.213186    1.626790    1.976630
     59          6           0       -3.840759    3.309602    1.513707
     60          1           0       -3.677980    3.423133    0.442841
     61          1           0       -3.205331    4.032518    2.028521
     62          6           0       -5.300813    3.576923    1.848141
     63          6           0       -5.690299    5.038326    1.876775
     64          1           0       -6.674279    5.304982    1.509049
     65          1           0       -4.924208    5.775542    1.663730
     66          6           0       -5.589647    4.260823    3.168514
     67          1           0       -4.754621    4.473072    3.826923
     68          1           0       -6.507182    4.003895    3.685860
     69          6           0       -6.339463    2.567293    1.386409
     70          1           0       -7.342790    2.942441    1.615909
     71          1           0       -6.236995    1.640718    1.958148
     72          6           0       -6.354132    2.165149   -0.089727
     73          8           0       -5.661310    2.797676   -0.936370
     74          8           0       -7.070290    1.157502   -0.393252
     75          8           0       -5.829991   -0.921622   -1.654634
     76          1           0       -6.413160   -0.577111   -0.951009
     77         11           0       -6.090335    1.210349   -2.474378
 ---------------------------------------------------------------------
 Rotational constants (GHZ):      0.1092890      0.0238271      0.0216843
 Leave Link  202 at Wed Aug 31 13:10:35 2022, MaxMem=   125829120 cpu:         1.0
 (Enter /home/software/gaussian//09.d01/l301.exe)
 Standard basis: 6-311+G(d,p) (5D, 7F)
 Ernie: Thresh=  0.10000D-02 Tol=  0.10000D-05 Strict=F.
  1158 basis functions,  1837 primitive gaussians,  1200 cartesian basis functions
   160 alpha electrons      160 beta electrons
       nuclear repulsion energy      4959.9886780093 Hartrees.
 IExCor=  402 DFT=T Ex+Corr=B3LYP ExCW=0 ScaHFX=  0.200000
 ScaDFX=  0.800000  0.720000  1.000000  0.810000 ScalE2=  1.000000  1.000000
 IRadAn=      5 IRanWt=     -1 IRanGd=            0 ICorTp=0 IEmpDi=  4
 NAtoms=   77 NActive=   77 NUniq=   77 SFac= 1.00D+00 NAtFMM=   60 NAOKFM=T Big=T
 Integral buffers will be    131072 words long.
 Raffenetti 2 integral format.
 Two-electron integral symmetry is turned off.
 Leave Link  301 at Wed Aug 31 13:10:35 2022, MaxMem=   125829120 cpu:         0.2
 (Enter /home/software/gaussian//09.d01/l302.exe)
 NPDir=0 NMtPBC=     1 NCelOv=     1 NCel=       1 NClECP=     1 NCelD=      1
         NCelK=      1 NCelE2=     1 NClLst=     1 CellRange=     0.0.
 One-electron integrals computed using PRISM.
 NBasis=  1158 RedAO= T EigKep=  1.07D-06  NBF=  1158
 NBsUse=  1147 1.00D-06 EigRej=  6.74D-07 NBFU=  1147
 Precomputing XC quadrature grid using
 IXCGrd= 4 IRadAn=           5 IRanWt=          -1 IRanGd=           0 AccXCQ= 0.00D+00.
 Generated NRdTot=       0 NPtTot=           0 NUsed=           0 NTot=          32
 NSgBfM=  1087  1089  1092  1096  1097 MxSgAt=    77 MxSgA2=    77.
 Leave Link  302 at Wed Aug 31 13:10:39 2022, MaxMem=   125829120 cpu:        54.2
 (Enter /home/software/gaussian//09.d01/l303.exe)
 DipDrv:  MaxL=1.
 Leave Link  303 at Wed Aug 31 13:10:40 2022, MaxMem=   125829120 cpu:         3.0
 (Enter /home/software/gaussian//09.d01/l401.exe)
 Initial guess from the checkpoint file:  "NaMon.chk"
 B after Tr=     0.000000    0.000000    0.000000
         Rot=    1.000000    0.000000    0.000000    0.000000 Ang=   0.00 deg.
 Guess basis will be translated and rotated to current coordinates.
 JPrj=2 DoOrth=T DoCkMO=T.
 Leave Link  401 at Wed Aug 31 13:10:51 2022, MaxMem=   125829120 cpu:       101.0
 (Enter /home/software/gaussian//09.d01/l502.exe)
 Closed shell SCF:
 Using DIIS extrapolation, IDIIS=  1040.
 Two-electron integral symmetry not used.
 IVT=     4365104 IEndB=     4365104 NGot=   125829120 MDV=   122921857
 LenX=   122921857 LenY=   121480657
 Requested convergence on RMS density matrix=1.00D-08 within 128 cycles.
 Requested convergence on MAX density matrix=1.00D-06.
 Requested convergence on             energy=1.00D-06.
 No special actions if energy rises.
 Fock matrices will be formed incrementally for  20 cycles.

 Cycle   1  Pass 1  IDiag  1:
 FoFJK:  IHMeth= 1 ICntrl=       0 DoSepK=F KAlg= 0 I1Cent=   0 FoldK=F
 IRaf= 670000000 NMat=   1 IRICut=       1 DoRegI=T DoRafI=F ISym2E= 0.
 FoFCou: FMM=T IPFlag=           0 FMFlag=      100000 FMFlg1=        2001
         NFxFlg=           0 DoJE=F BraDBF=F KetDBF=F FulRan=T
         wScrn=  0.000000 ICntrl=       0 IOpCl=  0 I1Cent=           0 NGrid=           0
         NMat0=    1 NMatS0=      1 NMatT0=    0 NMatD0=    1 NMtDS0=    0 NMtDT0=    0
 Symmetry not used in FoFCou.
 FMM levels:  10  Number of levels for PrismC:   9
 E= -2656.47707540700    
 DIIS: error= 4.18D-09 at cycle   1 NSaved=   1.
 NSaved= 1 IEnMin= 1 EnMin= -2656.47707540700     IErMin= 1 ErrMin= 4.18D-09
 ErrMax= 4.18D-09  0.00D+00 EMaxC= 1.00D-01 BMatC= 8.15D-15 BMatP= 8.15D-15
 IDIUse=1 WtCom= 1.00D+00 WtEn= 0.00D+00
 Coeff-Com:  0.100D+01
 Coeff:      0.100D+01
 Gap=     0.134 Goal=   None    Shift=    0.000
 RMSDP=1.91D-07 MaxDP=2.03D-05              OVMax= 2.80D-08

 Cycle   2  Pass 1  IDiag  1:
 RMSU=  1.89D-07    CP:  1.00D+00
 E= -2656.47707540727     Delta-E=       -0.000000000266 Rises=F Damp=F
 DIIS: error= 3.62D-09 at cycle   2 NSaved=   2.
 NSaved= 2 IEnMin= 2 EnMin= -2656.47707540727     IErMin= 2 ErrMin= 3.62D-09
 ErrMax= 3.62D-09  0.00D+00 EMaxC= 1.00D-01 BMatC= 6.67D-15 BMatP= 8.15D-15
 IDIUse=1 WtCom= 1.00D+00 WtEn= 0.00D+00
 Coeff-Com:  0.434D+00 0.566D+00
 Coeff:      0.434D+00 0.566D+00
 Gap=     0.134 Goal=   None    Shift=    0.000
 RMSDP=5.64D-08 MaxDP=6.53D-06 DE=-2.66D-10 OVMax= 1.87D-08

 Cycle   3  Pass 1  IDiag  1:
 RMSU=  5.06D-08    CP:  1.00D+00  1.12D+00
 E= -2656.47707540721     Delta-E=        0.000000000061 Rises=F Damp=F
 DIIS: error= 3.79D-09 at cycle   3 NSaved=   3.
 NSaved= 3 IEnMin= 2 EnMin= -2656.47707540727     IErMin= 2 ErrMin= 3.62D-09
 ErrMax= 3.79D-09  0.00D+00 EMaxC= 1.00D-01 BMatC= 1.10D-14 BMatP= 6.67D-15
 IDIUse=1 WtCom= 1.00D+00 WtEn= 0.00D+00
 Coeff-Com:  0.339D+00 0.502D+00 0.159D+00
 Coeff:      0.339D+00 0.502D+00 0.159D+00
 Gap=     0.134 Goal=   None    Shift=    0.000
 RMSDP=2.43D-08 MaxDP=2.56D-06 DE= 6.09D-11 OVMax= 5.18D-09

 Cycle   4  Pass 1  IDiag  1:
 RMSU=  2.03D-08    CP:  1.00D+00  1.18D+00  1.11D+00
 E= -2656.47707540688     Delta-E=        0.000000000327 Rises=F Damp=F
 DIIS: error= 5.88D-09 at cycle   4 NSaved=   4.
 NSaved= 4 IEnMin= 2 EnMin= -2656.47707540727     IErMin= 2 ErrMin= 3.62D-09
 ErrMax= 5.88D-09  0.00D+00 EMaxC= 1.00D-01 BMatC= 1.64D-14 BMatP= 6.67D-15
 IDIUse=1 WtCom= 1.00D+00 WtEn= 0.00D+00
 Coeff-Com:  0.321D+00 0.536D+00 0.319D+00-0.176D+00
 Coeff:      0.321D+00 0.536D+00 0.319D+00-0.176D+00
 Gap=     0.134 Goal=   None    Shift=    0.000
 RMSDP=1.89D-08 MaxDP=2.27D-06 DE= 3.27D-10 OVMax= 4.31D-09

 Cycle   5  Pass 1  IDiag  1:
 RMSU=  1.65D-08    CP:  1.00D+00  1.17D+00  9.87D-01  6.82D-01
 E= -2656.47707540727     Delta-E=       -0.000000000391 Rises=F Damp=F
 DIIS: error= 7.15D-09 at cycle   5 NSaved=   5.
 NSaved= 5 IEnMin= 5 EnMin= -2656.47707540727     IErMin= 2 ErrMin= 3.62D-09
 ErrMax= 7.15D-09  0.00D+00 EMaxC= 1.00D-01 BMatC= 1.46D-14 BMatP= 6.67D-15
 IDIUse=1 WtCom= 1.00D+00 WtEn= 0.00D+00
 Coeff-Com:  0.307D+00 0.485D+00 0.341D+00-0.365D+00 0.233D+00
 Coeff:      0.307D+00 0.485D+00 0.341D+00-0.365D+00 0.233D+00
 Gap=     0.134 Goal=   None    Shift=    0.000
 RMSDP=2.56D-08 MaxDP=2.73D-06 DE=-3.91D-10 OVMax= 5.28D-09

 Cycle   6  Pass 1  IDiag  1:
 RMSU=  2.17D-08    CP:  1.00D+00  1.13D+00  9.86D-01  4.02D-01  1.34D+00
 E= -2656.47707540711     Delta-E=        0.000000000160 Rises=F Damp=F
 DIIS: error= 5.91D-09 at cycle   6 NSaved=   6.
 NSaved= 6 IEnMin= 5 EnMin= -2656.47707540727     IErMin= 2 ErrMin= 3.62D-09
 ErrMax= 5.91D-09  0.00D+00 EMaxC= 1.00D-01 BMatC= 1.53D-14 BMatP= 6.67D-15
 IDIUse=1 WtCom= 1.00D+00 WtEn= 0.00D+00
 Coeff-Com:  0.308D+00 0.482D+00 0.332D+00-0.358D+00 0.218D+00 0.176D-01
 Coeff:      0.308D+00 0.482D+00 0.332D+00-0.358D+00 0.218D+00 0.176D-01
 Gap=     0.134 Goal=   None    Shift=    0.000
 RMSDP=2.21D-09 MaxDP=3.43D-07 DE= 1.60D-10 OVMax= 3.83D-10

 SCF Done:  E(RB3LYP) =  -2656.47707541     A.U. after    6 cycles
            NFock=  6  Conv=0.22D-08     -V/T= 2.0035
 KE= 2.647129643092D+03 PE=-1.615683225364D+04 EE= 5.893236857133D+03
 Leave Link  502 at Wed Aug 31 13:15:24 2022, MaxMem=   125829120 cpu:      3876.8
 (Enter /home/software/gaussian//09.d01/l508.exe)
 QCSCF skips out because SCF is already converged.
 Leave Link  508 at Wed Aug 31 13:15:24 2022, MaxMem=   125829120 cpu:         0.0
 (Enter /home/software/gaussian//09.d01/l601.exe)
 Copying SCF densities to generalized density rwf, IOpCl= 0 IROHF=0.

 **********************************************************************

            Population analysis using the SCF density.

 **********************************************************************

 Alpha  occ. eigenvalues -- -101.55558 -88.82620 -38.45105 -19.14388 -19.07655
 Alpha  occ. eigenvalues --  -19.07340 -14.31397 -10.26612 -10.25970 -10.24625
 Alpha  occ. eigenvalues --  -10.22901 -10.22386 -10.20525 -10.20245 -10.20046
 Alpha  occ. eigenvalues --  -10.19718 -10.19597 -10.19431 -10.19302 -10.19244
 Alpha  occ. eigenvalues --  -10.19189 -10.19089 -10.18883 -10.18848 -10.18661
 Alpha  occ. eigenvalues --  -10.18188 -10.18147 -10.18146 -10.18082 -10.17984
 Alpha  occ. eigenvalues --  -10.17967 -10.17927 -10.17901 -10.17876 -10.17773
 Alpha  occ. eigenvalues --  -10.17748 -10.17628 -10.17576 -10.16827 -10.16313
 Alpha  occ. eigenvalues --  -10.16283 -10.16172  -9.47016  -7.91229  -7.23473
 Alpha  occ. eigenvalues --   -7.22504  -7.22464  -5.87618  -5.87270  -5.86590
 Alpha  occ. eigenvalues --   -2.21235  -1.15111  -1.14954  -1.14828  -1.04824
 Alpha  occ. eigenvalues --   -1.03883  -0.95841  -0.94529  -0.89549  -0.87490
 Alpha  occ. eigenvalues --   -0.86957  -0.86531  -0.84682  -0.82796  -0.81792
 Alpha  occ. eigenvalues --   -0.80798  -0.80174  -0.78253  -0.77052  -0.75342
 Alpha  occ. eigenvalues --   -0.75068  -0.74368  -0.73706  -0.72914  -0.72076
 Alpha  occ. eigenvalues --   -0.71296  -0.68517  -0.66720  -0.64150  -0.64040
 Alpha  occ. eigenvalues --   -0.63067  -0.62336  -0.62203  -0.61422  -0.59897
 Alpha  occ. eigenvalues --   -0.59711  -0.59261  -0.57934  -0.55874  -0.54925
 Alpha  occ. eigenvalues --   -0.53484  -0.53174  -0.52807  -0.51635  -0.51268
 Alpha  occ. eigenvalues --   -0.50572  -0.49967  -0.48363  -0.48084  -0.47381
 Alpha  occ. eigenvalues --   -0.47337  -0.47146  -0.46766  -0.46590  -0.45948
 Alpha  occ. eigenvalues --   -0.45716  -0.45208  -0.44742  -0.44504  -0.44101
 Alpha  occ. eigenvalues --   -0.43427  -0.43345  -0.43165  -0.42955  -0.42667
 Alpha  occ. eigenvalues --   -0.42355  -0.42176  -0.42025  -0.41566  -0.40441
 Alpha  occ. eigenvalues --   -0.40310  -0.39765  -0.39437  -0.39072  -0.38780
 Alpha  occ. eigenvalues --   -0.38559  -0.38318  -0.38004  -0.37665  -0.37458
 Alpha  occ. eigenvalues --   -0.37070  -0.37025  -0.36309  -0.36052  -0.35701
 Alpha  occ. eigenvalues --   -0.35433  -0.34946  -0.34659  -0.34327  -0.34258
 Alpha  occ. eigenvalues --   -0.33906  -0.33644  -0.31926  -0.31653  -0.30906
 Alpha  occ. eigenvalues --   -0.30181  -0.29890  -0.29592  -0.27501  -0.26977
 Alpha  occ. eigenvalues --   -0.26913  -0.26659  -0.25997  -0.25631  -0.25310
 Alpha  occ. eigenvalues --   -0.24984  -0.24909  -0.24581  -0.22293  -0.21463
 Alpha virt. eigenvalues --   -0.08111  -0.05630  -0.04497  -0.02683  -0.02222
 Alpha virt. eigenvalues --   -0.01900  -0.01668  -0.01299  -0.00818  -0.00607
 Alpha virt. eigenvalues --   -0.00392  -0.00045   0.00128   0.00686   0.01088
 Alpha virt. eigenvalues --    0.01324   0.01415   0.01521   0.01772   0.01977
 Alpha virt. eigenvalues --    0.02349   0.02442   0.02751   0.02814   0.02894
 Alpha virt. eigenvalues --    0.03015   0.03486   0.03758   0.03851   0.03962
 Alpha virt. eigenvalues --    0.04158   0.04269   0.04445   0.04733   0.05033
 Alpha virt. eigenvalues --    0.05114   0.05158   0.05408   0.05586   0.05815
 Alpha virt. eigenvalues --    0.06135   0.06171   0.06329   0.06474   0.06639
 Alpha virt. eigenvalues --    0.06933   0.07081   0.07258   0.07302   0.07644
 Alpha virt. eigenvalues --    0.07714   0.07914   0.08192   0.08346   0.08590
 Alpha virt. eigenvalues --    0.08799   0.09019   0.09206   0.09289   0.09666
 Alpha virt. eigenvalues --    0.09774   0.10011   0.10138   0.10252   0.10443
 Alpha virt. eigenvalues --    0.10566   0.10644   0.10910   0.11013   0.11228
 Alpha virt. eigenvalues --    0.11442   0.11570   0.11707   0.11902   0.12050
 Alpha virt. eigenvalues --    0.12434   0.12610   0.12694   0.12920   0.13002
 Alpha virt. eigenvalues --    0.13212   0.13398   0.13655   0.13925   0.14010
 Alpha virt. eigenvalues --    0.14165   0.14295   0.14441   0.14634   0.14775
 Alpha virt. eigenvalues --    0.14974   0.14996   0.15155   0.15554   0.15601
 Alpha virt. eigenvalues --    0.15744   0.15806   0.16171   0.16396   0.16421
 Alpha virt. eigenvalues --    0.16623   0.16684   0.16921   0.17148   0.17278
 Alpha virt. eigenvalues --    0.17424   0.17502   0.17758   0.17888   0.18024
 Alpha virt. eigenvalues --    0.18162   0.18271   0.18323   0.18380   0.18600
 Alpha virt. eigenvalues --    0.18669   0.18710   0.18880   0.19213   0.19335
 Alpha virt. eigenvalues --    0.19487   0.19626   0.19838   0.20027   0.20137
 Alpha virt. eigenvalues --    0.20286   0.20401   0.20566   0.20749   0.20795
 Alpha virt. eigenvalues --    0.21000   0.21089   0.21208   0.21281   0.21394
 Alpha virt. eigenvalues --    0.21584   0.21626   0.21977   0.22113   0.22350
 Alpha virt. eigenvalues --    0.22404   0.22484   0.22662   0.22746   0.22989
 Alpha virt. eigenvalues --    0.23061   0.23331   0.23480   0.23683   0.23850
 Alpha virt. eigenvalues --    0.23962   0.24169   0.24336   0.24509   0.24718
 Alpha virt. eigenvalues --    0.24767   0.24963   0.25327   0.25514   0.25569
 Alpha virt. eigenvalues --    0.25688   0.25857   0.25909   0.26032   0.26154
 Alpha virt. eigenvalues --    0.26386   0.26479   0.26509   0.26937   0.27023
 Alpha virt. eigenvalues --    0.27212   0.27497   0.27560   0.27652   0.27819
 Alpha virt. eigenvalues --    0.27967   0.28107   0.28250   0.28396   0.28596
 Alpha virt. eigenvalues --    0.28690   0.29018   0.29120   0.29180   0.29376
 Alpha virt. eigenvalues --    0.29425   0.29727   0.29884   0.30205   0.30510
 Alpha virt. eigenvalues --    0.30589   0.30727   0.30989   0.31170   0.31325
 Alpha virt. eigenvalues --    0.31451   0.31547   0.31635   0.31789   0.32026
 Alpha virt. eigenvalues --    0.32283   0.32314   0.32677   0.32964   0.33249
 Alpha virt. eigenvalues --    0.33599   0.33667   0.33805   0.34038   0.34260
 Alpha virt. eigenvalues --    0.34457   0.34473   0.34899   0.35349   0.35542
 Alpha virt. eigenvalues --    0.35695   0.35874   0.36070   0.36377   0.36485
 Alpha virt. eigenvalues --    0.36723   0.36921   0.37161   0.37810   0.37961
 Alpha virt. eigenvalues --    0.38012   0.38306   0.38913   0.39131   0.39421
 Alpha virt. eigenvalues --    0.39602   0.40148   0.40787   0.41169   0.41473
 Alpha virt. eigenvalues --    0.42036   0.42195   0.42519   0.42700   0.43156
 Alpha virt. eigenvalues --    0.43442   0.43703   0.44241   0.44820   0.45146
 Alpha virt. eigenvalues --    0.45266   0.45439   0.45926   0.46375   0.46510
 Alpha virt. eigenvalues --    0.46659   0.46754   0.47326   0.47821   0.47935
 Alpha virt. eigenvalues --    0.48017   0.48499   0.49194   0.49294   0.49968
 Alpha virt. eigenvalues --    0.50145   0.50866   0.50960   0.51605   0.51969
 Alpha virt. eigenvalues --    0.52300   0.52513   0.52636   0.52760   0.53384
 Alpha virt. eigenvalues --    0.53685   0.53762   0.53926   0.54116   0.54249
 Alpha virt. eigenvalues --    0.54385   0.54667   0.54943   0.55153   0.55473
 Alpha virt. eigenvalues --    0.55795   0.55958   0.56060   0.56239   0.56687
 Alpha virt. eigenvalues --    0.56808   0.57056   0.57208   0.57499   0.57835
 Alpha virt. eigenvalues --    0.57882   0.58266   0.58432   0.58641   0.58973
 Alpha virt. eigenvalues --    0.59377   0.59730   0.60083   0.60306   0.60510
 Alpha virt. eigenvalues --    0.60944   0.61238   0.61449   0.61953   0.62069
 Alpha virt. eigenvalues --    0.62169   0.62403   0.62695   0.62998   0.63424
 Alpha virt. eigenvalues --    0.64160   0.64260   0.64767   0.65056   0.65352
 Alpha virt. eigenvalues --    0.65412   0.65570   0.66082   0.66262   0.66389
 Alpha virt. eigenvalues --    0.66796   0.66983   0.67193   0.67374   0.67747
 Alpha virt. eigenvalues --    0.67990   0.68175   0.68399   0.68649   0.68745
 Alpha virt. eigenvalues --    0.69281   0.69508   0.69663   0.69801   0.69872
 Alpha virt. eigenvalues --    0.69962   0.70309   0.70679   0.70897   0.71077
 Alpha virt. eigenvalues --    0.71102   0.71321   0.71700   0.71943   0.72279
 Alpha virt. eigenvalues --    0.72514   0.72877   0.72963   0.73157   0.73610
 Alpha virt. eigenvalues --    0.73668   0.73934   0.74120   0.74554   0.74662
 Alpha virt. eigenvalues --    0.75141   0.75377   0.75914   0.75996   0.76359
 Alpha virt. eigenvalues --    0.76837   0.77055   0.77175   0.77575   0.77816
 Alpha virt. eigenvalues --    0.78012   0.78443   0.78542   0.79008   0.79696
 Alpha virt. eigenvalues --    0.79849   0.80541   0.80783   0.81347   0.81789
 Alpha virt. eigenvalues --    0.81877   0.82529   0.82831   0.83007   0.83158
 Alpha virt. eigenvalues --    0.83342   0.83723   0.83848   0.84028   0.84258
 Alpha virt. eigenvalues --    0.84732   0.85046   0.85396   0.85787   0.86261
 Alpha virt. eigenvalues --    0.86412   0.86533   0.86630   0.87132   0.87506
 Alpha virt. eigenvalues --    0.88035   0.88358   0.88651   0.89337   0.89758
 Alpha virt. eigenvalues --    0.90059   0.90773   0.91164   0.91215   0.91502
 Alpha virt. eigenvalues --    0.91834   0.91942   0.92741   0.93032   0.93241
 Alpha virt. eigenvalues --    0.93527   0.93763   0.94018   0.94631   0.95127
 Alpha virt. eigenvalues --    0.95374   0.95715   0.95905   0.96395   0.96583
 Alpha virt. eigenvalues --    0.96802   0.96897   0.97093   0.97858   0.98175
 Alpha virt. eigenvalues --    0.98433   0.98640   0.98877   0.99731   1.00146
 Alpha virt. eigenvalues --    1.00530   1.01465   1.02218   1.02663   1.03174
 Alpha virt. eigenvalues --    1.03310   1.03517   1.03730   1.03872   1.04164
 Alpha virt. eigenvalues --    1.04752   1.04776   1.05200   1.05645   1.06441
 Alpha virt. eigenvalues --    1.07036   1.07213   1.07634   1.08034   1.08437
 Alpha virt. eigenvalues --    1.08994   1.09369   1.09938   1.10084   1.10262
 Alpha virt. eigenvalues --    1.10618   1.11483   1.12116   1.12845   1.12955
 Alpha virt. eigenvalues --    1.13367   1.14015   1.14696   1.15293   1.16022
 Alpha virt. eigenvalues --    1.16411   1.16970   1.17096   1.19031   1.19473
 Alpha virt. eigenvalues --    1.20395   1.20795   1.21843   1.22268   1.22841
 Alpha virt. eigenvalues --    1.23394   1.24009   1.24544   1.25075   1.25655
 Alpha virt. eigenvalues --    1.26078   1.26357   1.28082   1.28372   1.28395
 Alpha virt. eigenvalues --    1.29797   1.30257   1.31344   1.31822   1.32064
 Alpha virt. eigenvalues --    1.33538   1.33685   1.34607   1.35228   1.36403
 Alpha virt. eigenvalues --    1.36741   1.37515   1.38235   1.38727   1.39280
 Alpha virt. eigenvalues --    1.39544   1.40813   1.41418   1.41815   1.42981
 Alpha virt. eigenvalues --    1.43378   1.44702   1.45661   1.46299   1.46366
 Alpha virt. eigenvalues --    1.47109   1.47586   1.48371   1.48950   1.49248
 Alpha virt. eigenvalues --    1.49285   1.49594   1.49669   1.50304   1.50626
 Alpha virt. eigenvalues --    1.51103   1.51774   1.51924   1.52416   1.52961
 Alpha virt. eigenvalues --    1.53236   1.53751   1.53989   1.54294   1.54565
 Alpha virt. eigenvalues --    1.54944   1.55322   1.55497   1.55537   1.56399
 Alpha virt. eigenvalues --    1.56571   1.56824   1.57253   1.57481   1.57702
 Alpha virt. eigenvalues --    1.58144   1.58464   1.58638   1.59285   1.59374
 Alpha virt. eigenvalues --    1.59512   1.60740   1.60766   1.61270   1.61445
 Alpha virt. eigenvalues --    1.61860   1.62755   1.62873   1.63013   1.63316
 Alpha virt. eigenvalues --    1.64327   1.64370   1.64965   1.65203   1.65345
 Alpha virt. eigenvalues --    1.66107   1.66616   1.67511   1.67757   1.68436
 Alpha virt. eigenvalues --    1.68897   1.69158   1.69599   1.69965   1.70510
 Alpha virt. eigenvalues --    1.71463   1.71733   1.72016   1.72984   1.73368
 Alpha virt. eigenvalues --    1.73494   1.74099   1.74385   1.74501   1.74698
 Alpha virt. eigenvalues --    1.74921   1.75125   1.75596   1.76023   1.76340
 Alpha virt. eigenvalues --    1.76519   1.76747   1.77273   1.77604   1.77980
 Alpha virt. eigenvalues --    1.78186   1.78401   1.79110   1.79552   1.79973
 Alpha virt. eigenvalues --    1.80815   1.81171   1.82165   1.82512   1.83055
 Alpha virt. eigenvalues --    1.83633   1.83945   1.85168   1.85596   1.85918
 Alpha virt. eigenvalues --    1.86526   1.86953   1.87600   1.87803   1.88161
 Alpha virt. eigenvalues --    1.88336   1.89094   1.89161   1.89711   1.90236
 Alpha virt. eigenvalues --    1.90749   1.91281   1.91513   1.92413   1.93081
[...]
 000417,-0.00000085,0.00000399,-0.00000410,-0.00000160,-0.00004031,-0.0
 0001064,0.00002667,0.00004445,-0.00000177,0.00000326,0.00000212,-0.000
 00199,-0.00000149,-0.00003793,0.00003263,-0.00004827,0.00000107,-0.000
 00763,0.00000615,-0.00015133,-0.00011530,0.00010524,-0.00014530,0.0000
 5901,-0.00003848,0.00010008,-0.00000870,0.00000533,-0.00001107,-0.0000
 7008,-0.00003441,0.00010047,-0.00001762,-0.00008731,-0.00001660,0.0000
 0307,0.00007419,0.00002142,0.00000461,0.00001336,-0.00002255,-0.000035
 57,-0.00000751,-0.00009133,0.00003161,-0.00004313,-0.00001434,-0.00002
 880,-0.00002917,0.00000756,0.00002287,-0.00000044,-0.00028097,0.000119
 20,-0.00022046,-0.00002808,-0.00008028,0.00005470,-0.00008592,-0.00006
 304,0.00004330,0.00500977,0.00429001,0.00035855,-0.00179140,-0.0016280
 6,0.00203533,-0.00001687,-0.00956161,-0.00146822,-0.21964438,0.1236818
 6,0.34780538,0.00215280,-0.00142234,-0.00214624,-0.00077599,0.00020959
 ,0.00034198,-0.00017405,-0.00012770,-0.00045892,-0.00038515,-0.0004508
 5,0.00115372,0.00333701,0.00039584,-0.00697086,-0.00002472,-0.00229576
 ,-0.00083814,0.00097287,-0.00051235,-0.00053493,0.00021034,-0.00000929
 ,-0.00001722,-0.00006022,-0.00002014,0.00011355,-0.00064781,-0.0003600
 2,-0.00001790,0.00019242,-0.00002291,0.00035990,-0.00001444,-0.0000919
 9,-0.00013547,-0.00000742,-0.00031519,0.00002003,0.00002250,-0.0000847
 6,0.00002816,-0.00003578,-0.00012487,0.00001969,0.00001929,-0.00007004
 ,0.00001715,-0.00002361,-0.00020990,-0.00010217,0.00003005,0.00002661,
 -0.00001181,0.00002175,0.00116808,0.00003061,-0.00162109,0.00163409,0.
 00057568,0.00097357,-0.00066551,0.00059730,0.00029986,-0.00152407,-0.0
 0371449,-0.00053430,-0.00031832,0.00031761,-0.00009727,0.00011496,-0.0
 0003954,0.00032113,0.00007755,-0.00006427,-0.00013223,-0.00015975,-0.0
 0038262,0.00008214,-0.00042929,0.00012381,-0.00010365,0.00010917,0.000
 22965,0.00012499,-0.00001840,0.00005343,0.00000340,-0.00002760,-0.0000
 2203,-0.00000813,0.00000892,-0.00002807,0.00001800,0.00000760,-0.00002
 082,0.00003182,0.00001580,-0.00002370,0.00000429,0.00000113,-0.0000089
 9,-0.00002745,0.00000051,0.00000931,0.00008297,0.00004734,-0.00001519,
 -0.00003880,-0.00000938,-0.00003275,-0.00002636,0.00001320,-0.00001008
 ,-0.00000912,-0.00000583,-0.00000541,0.00004416,-0.00000213,0.00000877
 ,-0.00000209,-0.00000490,0.00000041,-0.00006246,0.00001942,-0.00003925
 ,0.00004248,0.00000262,0.00000064,-0.00002369,-0.00000375,0.00000784,0
 .00002226,0.00000224,-0.00000755,-0.00001440,0.00000625,-0.00000703,-0
 .00000046,-0.00000175,0.00000059,0.00002000,0.00000348,-0.00000833,0.0
 0000048,-0.00000073,-0.00000057,-0.00002927,-0.00001308,0.00002779,0.0
 0001294,0.00000007,0.00000206,-0.00000281,-0.00000079,-0.00000073,0.00
 002424,0.00000688,-0.00001489,-0.00002531,0.00000395,-0.00000100,-0.00
 000119,-0.00000215,-0.00000041,0.00002304,-0.00001295,0.00002900,-0.00
 000118,-0.00000209,-0.00000707,-0.00003439,0.00019088,0.00006507,0.000
 25175,-0.00039072,0.00000267,0.00008284,0.00008008,0.00003496,-0.00010
 455,0.00009170,-0.00004464,0.00027849,0.00016062,-0.00026596,-0.000125
 99,0.00003960,0.00000900,-0.00003453,0.00006054,0.00004613,-0.00000854
 ,-0.00004818,-0.00002514,-0.00016877,-0.00006143,-0.00009901,-0.000015
 35,-0.00008818,-0.00005664,-0.00001540,0.00003653,0.00002628,-0.000435
 63,-0.00049586,-0.00021260,-0.00007918,0.00002671,0.00002039,0.0000780
 5,-0.00011395,-0.00011347,0.00614756,0.00368775,-0.00021550,-0.0032355
 3,-0.00207753,0.00188346,-0.00820961,-0.00505470,-0.00149532,-0.181503
 92,0.08500534,0.20646052,0.18009460,0.00052445,0.00199369,-0.00117349,
 0.00057569,0.00066249,0.00068370,-0.00034954,-0.00010093,0.00017712,-0
 .00135364,-0.00023994,0.00057084,0.02148470,-0.01740611,-0.02730159,-0
 .00089817,-0.00492932,-0.00006588,0.00063243,0.00035719,-0.00107226,0.
 00011948,-0.00003584,0.00022445,-0.00018566,0.00010253,-0.00026652,0.0
 0079718,0.00035266,0.00083501,-0.00044859,-0.00020827,-0.00026303,0.00
 008700,-0.00007979,-0.00003576,-0.00016575,0.00013019,-0.00027573,-0.0
 0000233,0.00009428,-0.00005771,0.00001030,0.00037912,0.00007293,-0.000
 01359,0.00003199,-0.00004552,0.00004868,-0.00051808,0.00013630,-0.0000
 4306,0.00002820,-0.00014058,0.00058456,-0.00007899,0.00045211,-0.00019
 260,-0.00026323,-0.00008886,-0.00028730,0.00012468,-0.00026760,-0.0005
 8710,0.00205925,-0.00021989,0.00011142,0.00027385,-0.00005652,0.000249
 13,-0.00015397,-0.00014834,-0.00006954,-0.00015805,-0.00006871,-0.0004
 0887,0.00043823,0.00006713,-0.00030305,0.00016320,0.00012786,0.0000835
 3,-0.00028729,0.00006155,-0.00014239,-0.00002137,-0.00015940,-0.000056
 62,0.00005914,0.00012627,0.00005844,-0.00003674,0.00003818,-0.00000975
 ,0.00002201,0.00001468,0.00003378,0.00000552,-0.00002178,0.00001363,0.
 00000974,0.00000773,0.00003276,-0.00002124,0.00003305,0.00005163,-0.00
 000544,-0.00007181,0.00000833,0.00002962,0.00004651,-0.00004621,0.0000
 1233,-0.00004213,-0.00000012,0.00000745,0.00001754,0.00006284,-0.00002
 177,0.00000889,-0.00000583,0.00000716,0.00000859,-0.00007285,0.0000338
 0,-0.00004003,0.00003636,-0.00001542,-0.00000298,-0.00001009,0.0000018
 5,0.00000407,0.00002413,0.00000072,0.00000184,-0.00001353,0.00000168,-
 0.00000597,0.00000117,0.00000121,0.00000446,0.00001532,0.00000101,-0.0
 0000850,0.00000172,0.00000198,0.00000100,-0.00000697,-0.00000732,0.000
 01469,0.00000150,-0.00000387,-0.00000061,-0.00000152,0.00000350,0.0000
 0175,0.00000972,0.00000142,-0.00000687,-0.00002190,-0.00000279,-0.0000
 0611,0.00000293,0.00000216,0.00000629,0.00002734,-0.00002128,0.0000195
 5,-0.00000288,0.00001193,0.00000199,0.00028723,-0.00023582,-0.00011441
 ,-0.00032605,0.00054379,0.00002115,-0.00025667,-0.00016285,-0.00006182
 ,0.00018447,-0.00009115,0.00011933,-0.00050428,-0.00026865,0.00049459,
 0.00020719,-0.00009948,-0.00009016,0.00004096,-0.00010565,-0.00009779,
 0.00003113,0.00010304,0.00004156,0.00037963,0.00008032,0.00022958,0.00
 003890,0.00017298,0.00012922,0.00000206,-0.00007483,-0.00003012,0.0009
 3051,0.00033540,0.00070594,0.00022180,0.00018288,-0.00002201,0.0000930
 3,0.00022540,0.00020930,-0.01215015,-0.01400202,-0.00121366,0.00530344
 ,0.00495381,-0.00421419,0.00306106,0.01393673,0.00381459,0.05941806,-0
 .08667058,-0.07541897,-0.07446870,0.09922772,-0.00061922,0.00200442,0.
 00101534,0.00082200,0.00083470,0.00008109,-0.00043890,-0.00034400,-0.0
 0066944,-0.00009088,-0.00022218,-0.00000594,-0.00225049,-0.00343633,-0
 .00007055,-0.00020561,-0.00048608,0.00014126,0.00022358,0.00016276,0.0
 0054448,-0.00004504,0.00009099,-0.00000221,0.00006484,-0.00001423,0.00
 026851,0.00029601,0.00103219,0.00176071,-0.00026042,0.00040778,-0.0008
 5700,-0.00002866,-0.00023713,-0.00001035,0.00010284,-0.00005457,0.0001
 2986,-0.00004571,0.00005544,-0.00005012,-0.00010971,-0.00001110,-0.000
 06820,-0.00002113,-0.00004661,-0.00002160,-0.00002876,-0.00040326,-0.0
 0028121,-0.00005015,0.00004809,-0.00013920,0.00041849,0.00142024,0.000
 30857,-0.00209969,0.00144346,-0.00113963,0.00037924,-0.00033312,0.0000
 9259,-0.00274572,-0.00102947,-0.00318616,0.00009473,-0.00050899,0.0006
 6030,0.00027514,-0.00003910,-0.00024662,0.00032885,0.00004152,-0.00028
 421,-0.00015622,-0.00004050,0.00000169,-0.00010616,0.00005416,0.000124
 86,-0.00008989,-0.00003749,0.00009439,0.00004274,-0.00004421,-0.000050
 61,-0.00003182,0.00004019,0.00005581,0.00002901,-0.00001247,-0.0000124
 3,0.00000905,0.00002238,-0.00000572,0.00003759,0.00002332,-0.00002929,
 0.00000857,0.00000885,-0.00000117,-0.00002117,-0.00001693,0.00001359,0
 .00007942,0.00002351,-0.00001347,-0.00002940,0.00001337,-0.00000696,-0
 .00003615,0.00001057,-0.00002015,-0.00000699,0.00000238,0.00000407,0.0
 0005201,-0.00001615,0.00000526,-0.00000275,0.00000273,0.00000529,-0.00
 006362,0.00003006,-0.00003784,0.00003994,-0.00000676,-0.00000264,-0.00
 002035,-0.00000221,0.00000910,0.00002201,0.00000380,-0.00000608,-0.000
 01325,0.00000325,-0.00000758,0.00000011,0.00000060,0.00000182,0.000018
 40,0.00000108,-0.00000691,0.00000036,0.00000110,0.00000022,-0.00002182
 ,-0.00001235,0.00002452,0.00000960,-0.00000204,-0.00000114,-0.00000244
 ,0.00000222,0.00000091,0.00001912,0.00000499,-0.00001255,-0.00002378,0
 .00000026,-0.00000356,-0.00000003,0.00000126,0.00000193,0.00002291,-0.
 00001987,0.00002481,-0.00000120,0.00000598,-0.00000238,0.00011914,-0.0
 0001991,-0.00010101,0.00000702,0.00008272,0.00002178,-0.00009692,-0.00
 002521,-0.00001491,0.00004050,0.00000773,0.00003980,-0.00012602,-0.000
 01744,-0.00006962,0.00007810,0.00001406,-0.00005092,0.00000126,-0.0000
 2772,-0.00002276,0.00001423,0.00004254,0.00001522,0.00005622,-0.000034
 03,0.00003438,0.00001702,0.00002948,0.00002681,0.00000057,-0.00002249,
 -0.00000628,-0.00027375,-0.00035048,0.00024009,0.00005406,0.00007251,0
 .00003116,0.00002295,0.00006325,-0.00013084,-0.00543890,-0.00512976,-0
 .00181200,0.00300158,0.00168813,-0.00211187,0.00207253,0.00478409,-0.0
 0181627,0.19958441,-0.10461538,-0.24987998,-0.19508106,0.09648609,0.25
 981267,0.00026636,-0.00048204,0.00048133,-0.00028211,0.00009169,-0.000
 11856,-0.00013255,-0.00015367,-0.00048911,-0.00005763,-0.00010283,0.00
 015843,-0.00016029,0.00030412,0.00011847,0.00017174,-0.00002857,0.0000
 4906,-0.00013461,-0.00011564,0.00008729,-0.00036128,0.00023582,-0.0000
 7762,0.00026081,0.00010060,0.00000297,-0.00015808,-0.00006313,0.000098
 97,-0.00005208,0.00003404,-0.00000206,0.00002840,-0.00004054,-0.000040
 65,-0.00001862,-0.00005244,0.00000642,0.00000678,-0.00000819,-0.000007
 80,-0.00000932,0.00001740,-0.00002056,0.00001114,-0.00001070,-0.000003
 60,-0.00002343,-0.00007409,-0.00001435,0.00000892,0.00001746,-0.000041
 07,-0.00003877,0.00024923,0.00006459,0.00002208,0.00003617,-0.00000196
 ,-0.00002866,-0.00006130,0.00006478,0.00016453,0.00001877,-0.00020030,
 0.00012934,0.00009344,-0.00023424,-0.00017320,0.00031883,0.00006509,0.
 00000154,-0.00011080,0.00016122,-0.00078176,0.00037684,-0.00081449,0.0
 0018972,-0.00052153,-0.00047332,0.00036257,-0.00007457,0.00013319,-0.0
 0065378,0.00070817,-0.00013787,-0.00001097,-0.00067337,-0.00008262,0.0
 0008477,-0.00015445,0.00033471,-0.00005943,-0.00003031,-0.00001133,0.0
 0013873,-0.00003239,0.00001154,0.00006981,-0.00002096,-0.00000353,0.00
 011656,-0.00002022,0.00003659,-0.00004946,-0.00003754,-0.00002841,0.00
 005255,-0.00004535,0.00004746,-0.00020685,0.00009675,-0.00011479,-0.00
 000460,-0.00002534,0.00003006,0.00027606,-0.00004729,0.00005935,-0.000
 02568,-0.00001596,0.00001526,-0.00034800,0.00013701,-0.00020270,0.0001
 9547,-0.00001587,0.00001097,-0.00008617,-0.00000520,0.00002193,0.00011
 981,0.00000192,-0.00001288,-0.00006970,0.00002025,-0.00003127,0.000002
 01,-0.00000665,0.00001080,0.00008588,0.00001771,-0.00003957,0.00000581
 ,-0.00000066,-0.00000052,-0.00009111,-0.00005125,0.00010221,0.00003654
 ,-0.00000663,0.00000987,-0.00001113,-0.00000009,-0.00000062,0.00008396
 ,0.00002275,-0.00005203,-0.00011927,0.00001305,-0.00000971,0.00000601,
 -0.00000784,0.00001218,0.00013828,-0.00007502,0.00011901,-0.00001065,0
 .00000846,-0.00001853,-0.00000326,0.00017055,0.00041789,0.00019535,-0.
 00043058,-0.00008747,0.00002987,-0.00004243,-0.00003046,-0.00008924,0.
 00006397,-0.00000053,0.00026553,0.00013874,-0.00018186,-0.00009673,0.0
 0000434,-0.00002638,-0.00005943,0.00007938,0.00005367,-0.00001267,-0.0
 0005473,-0.00003911,-0.00014969,-0.00008344,-0.00007111,-0.00001533,-0
 .00007394,-0.00005063,-0.00003444,0.00003537,0.00004112,0.00016545,-0.
 00085959,-0.00001759,-0.00012309,-0.00003330,-0.00003182,0.00001669,-0
 .00007175,0.00010174,0.00889124,0.00782922,0.00125267,-0.00670518,-0.0
 0572022,-0.00136384,-0.00952037,-0.00346692,0.00482869,-0.00261946,0.0
 0240585,-0.00139092,0.00285778,-0.00248432,0.00221760,0.00813000,0.000
 15299,0.00078562,0.00040024,0.00028495,0.00039012,-0.00002205,-0.00043
 092,-0.00018515,-0.00032226,-0.00003733,-0.00005268,-0.00004897,0.0007
 7088,-0.00532276,0.00041492,0.00029468,0.00046534,0.00048218,-0.000111
 07,0.00040170,0.00000795,0.00010242,-0.00019169,-0.00003400,-0.0001690
 2,-0.00025477,-0.00070390,0.00033867,0.00030421,0.00052756,-0.00021282
 ,0.00016952,-0.00042335,-0.00001201,-0.00016587,-0.00000910,-0.0000190
 7,0.00001437,-0.00004320,-0.00002079,0.00008860,-0.00003360,-0.0000407
 5,0.00014929,-0.00006952,-0.00002349,0.00002781,-0.00004804,-0.0000064
 0,-0.00017333,-0.00003194,-0.00005299,0.00001702,-0.00010753,0.0000481
 9,0.00038833,0.00008547,0.00009354,-0.00026164,-0.00005001,-0.00019011
 ,0.00015007,-0.00022921,-0.00015460,0.00030705,0.00046184,0.00017750,0
 .00018149,0.00020658,0.00027001,-0.00018710,-0.00013449,-0.00007675,-0
 .00010929,-0.00012330,-0.00004046,0.00021925,0.00016142,-0.00016551,0.
 00052381,-0.00004893,0.00029550,-0.00016893,-0.00012655,-0.00051475,0.
 00013066,-0.00023654,-0.00014065,0.00007052,0.00002485,0.00015256,-0.0
 0010261,0.00004381,-0.00007220,0.00000252,0.00004636,0.00000906,-0.000
 00337,0.00000238,0.00002325,0.00000837,0.00001407,0.00005637,-0.000014
 14,0.00004829,-0.00003546,-0.00008974,0.00004371,0.00005438,0.00001019
 ,0.00006321,-0.00006642,0.00000877,-0.00004432,0.00000665,0.00000374,0
 .00002524,0.00007539,-0.00002696,0.00000371,-0.00000838,0.00000779,0.0
 0001147,-0.00007814,0.00004010,-0.00004452,0.00003564,-0.00002025,0.00
 000314,-0.00001277,0.00000374,0.00000213,0.00002612,-0.00000093,0.0000
 0203,-0.00001189,0.00000005,-0.00000634,0.00000155,0.00000137,0.000004
 80,0.00001275,-0.00000006,-0.00000589,0.00000146,0.00000252,0.00000093
 ,-0.00000365,-0.00000553,0.00000994,0.00000217,-0.00000492,0.00000014,
 -0.00000163,0.00000446,0.00000203,0.00000585,-0.00000019,-0.00000369,-
 0.00002191,-0.00000010,-0.00000498,0.00000452,0.00000212,0.00000713,0.
 00003284,-0.00002369,0.00001836,-0.00000389,0.00001212,0.00000270,0.00
 006441,-0.00024543,-0.00006750,-0.00022476,0.00040440,-0.00012927,-0.0
 0020129,-0.00010545,-0.00007228,0.00008622,-0.00009381,0.00009273,-0.0
 0021183,-0.00016080,-0.00014693,0.00007699,-0.00009566,0.00004352,0.00
 009425,-0.00009505,-0.00009451,-0.00000325,-0.00000429,-0.00001873,0.0
 0009297,0.00004848,0.00014974,0.00003044,0.00004112,0.00006537,-0.0000
 0920,-0.00002697,0.00000001,-0.00106196,-0.00017149,0.00011134,0.00000
 814,0.00006729,0.00023753,0.00003644,0.00002688,0.00030249,0.00753017,
 0.00793741,-0.01171660,-0.00578090,-0.01804107,-0.00752570,-0.00303585
 ,-0.00872679,0.00076326,0.00020445,-0.01471806,0.00347139,-0.00113521,
 -0.00083971,0.00655132,0.00284571,0.03727208,0.00013464,-0.00071412,0.
 00029174,-0.00019980,-0.00013689,-0.00010228,-0.00018286,0.00006371,-0
 .00009086,0.00010438,0.00013823,-0.00018670,-0.00018150,0.00216673,0.0
 0036278,0.00030354,-0.00070094,0.00076017,0.00006862,0.00006492,-0.000
 39998,0.00006751,-0.00001523,0.00008187,-0.00036970,-0.00006936,-0.000
 52690,0.00004245,-0.00044475,-0.00016688,0.00007941,0.00001925,0.00006
 527,-0.00005432,-0.00006235,-0.00003435,0.00000373,-0.00013583,-0.0000
 0316,-0.00000123,-0.00003568,0.00000666,-0.00002411,-0.00001349,-0.000
 01291,0.00000169,-0.00003001,0.00001067,-0.00004097,-0.00016366,-0.000
 06378,-0.00001666,0.00002955,-0.00004034,0.00022270,0.00043078,0.00010
 780,-0.00046084,0.00025213,-0.00018727,0.00010902,-0.00009301,0.000052
 30,0.00008799,0.00016596,-0.00032959,0.00007993,0.00006935,0.00006338,
 -0.00008434,0.00000187,-0.00005627,0.00012488,-0.00013182,0.00006687,-
 0.00078736,0.00041099,-0.00036578,-0.00053723,-0.00024236,-0.00007695,
 -0.00023701,-0.00033542,0.00047537,0.00017885,-0.00007790,-0.00024888,
 -0.00018686,0.00002444,0.00034999,0.00003672,-0.00007964,0.00006213,0.
 00007805,0.00010010,-0.00003920,0.00015441,0.00002953,-0.00009951,0.00
 002895,0.00001672,0.00000397,-0.00001302,-0.00000820,0.00003834,0.0001
 9306,0.00012128,-0.00017611,-0.00007183,0.00002917,-0.00000720,-0.0000
 5188,0.00002058,-0.00005092,-0.00001752,0.00000777,0.00000046,0.000096
 88,-0.00002300,0.00002815,-0.00000248,0.00000570,0.00000663,-0.0001239
 5,0.00004973,-0.00006600,0.00007969,-0.00000555,-0.00001739,-0.0000332
 0,-0.00000473,0.00001582,0.00004121,0.00000402,-0.00001489,-0.00002727
 ,0.00000804,-0.00001347,-0.00000028,0.00000033,0.00000250,0.00003798,0
 .00000568,-0.00001777,0.00000114,0.00000097,0.00000076,-0.00004764,-0.
 00002555,0.00005225,0.00001799,-0.00000529,0.00000329,-0.00000327,0.00
 000314,0.00000154,0.00004219,0.00001187,-0.00002912,-0.00004664,0.0000
 0354,-0.00000223,-0.00000234,0.00000124,0.00000192,0.00003838,-0.00003
 229,0.00004664,-0.00000047,0.00000780,-0.00000603,0.00037179,0.0000290
 3,-0.00008623,-0.00007301,0.00020597,0.00006874,-0.00029156,-0.0001583
 3,-0.00006715,0.00009103,0.00001744,0.00012761,-0.00029313,-0.00006843
 ,0.00021791,0.00010286,-0.00008388,-0.00010636,-0.00000226,-0.00006969
 ,-0.00005800,0.00004959,0.00008177,0.00003014,0.00024390,-0.00001038,0
 .00018205,0.00003076,0.00009891,0.00008963,-0.00000954,-0.00005083,-0.
 00001780,-0.00010873,0.00016519,0.00011246,0.00012685,0.00016239,0.000
 18958,0.00013147,0.00016505,0.00010777,-0.00058891,-0.01106985,-0.0172
 0683,-0.00170102,-0.01001114,-0.01359238,0.00712451,0.00182123,-0.0138
 2252,0.00011470,0.00312710,-0.00464823,0.00068064,0.00715989,-0.002323
 51,-0.00464935,0.00781048,0.05127657\\0.00000003,0.00000004,-0.0000001
 5,0.00000009,0.,-0.00000015,0.00000002,0.00000007,-0.00000008,0.000000
 04,-0.00000005,-0.00000008,0.00000016,-0.00000026,0.00000057,0.,0.0000
 0005,-0.00000020,0.00000003,0.00000014,-0.00000015,0.00000001,0.000000
 15,-0.00000010,0.00000001,0.00000018,0.,0.00000005,0.00000021,-0.00000
 028,0.00000007,-0.00000026,-0.00000013,0.00000002,0.00000010,-0.000000
 27,0.00000002,-0.00000002,-0.00000046,0.00000010,0.,-0.00000034,0.0000
 0016,-0.00000014,-0.00000015,0.00000011,-0.00000011,-0.00000037,0.0000
 0006,-0.00000013,-0.00000008,0.00000006,-0.00000016,-0.00000024,0.0000
 0019,-0.00000013,-0.00000023,0.00000023,-0.00000007,-0.00000017,0.0000
 0002,-0.00000011,0.00000001,0.,-0.00000013,0.00000009,-0.00000029,0.00
 000020,0.,0.00000007,-0.00000008,-0.00000009,0.00000014,-0.00000013,-0
 .00000005,0.00000014,-0.00000061,-0.00000068,0.,0.00000018,0.00000023,
 -0.00000028,0.00000002,0.00000007,0.00000020,0.00000003,0.00000010,-0.
 00000006,0.00000015,0.00000016,-0.00000034,0.00000015,0.00000002,-0.00
 000010,0.00000018,0.00000024,0.00000017,0.00000009,0.00000010,-0.00000
 012,0.00000020,0.00000015,-0.00000006,0.00000008,0.00000003,0.00000007
 ,0.00000010,0.00000005,-0.00000002,-0.00000003,-0.00000001,0.00000006,
 -0.00000001,0.00000010,-0.00000002,0.00000001,-0.00000006,-0.00000004,
 0.00000013,-0.00000002,0.,0.00000015,0.00000004,-0.00000003,0.00000024
 ,-0.00000027,0.00000022,0.00000006,0.00000010,-0.00000027,0.00000035,-
 0.00000042,0.00000028,0.00000013,-0.00000024,0.00000024,0.,-0.00000002
 ,0.00000003,0.00000008,-0.00000028,-0.00000031,0.00000014,-0.00000011,
 0.00000012,0.00000012,-0.00000015,-0.00000052,0.00000010,0.00000018,-0
 .00000010,-0.00000002,0.00000036,-0.00000003,0.00000031,-0.00000011,0.
 00000045,0.00000042,-0.00000041,-0.00000013,-0.00000004,0.,0.00000009,
 -0.00000002,-0.00000018,-0.00000011,-0.00000007,0.00000011,0.00000012,
 -0.00000002,-0.00000011,0.00000022,-0.00000063,0.00000113,-0.00000043,
 0.00000050,0.00000004,-0.00000003,-0.00000001,0.00000017,0.00000003,-0
 .00000018,0.00000033,0.00000010,-0.00000024,0.00000011,-0.00000026,0.0
 0000018,0.00000025,0.,-0.00000010,0.00000033,-0.00000005,-0.00000021,0
 .00000039,-0.00000017,-0.00000035,0.00000026,0.,-0.00000024,0.00000025
 ,0.00000007,-0.00000030,0.00000036,-0.00000018,-0.00000020,0.00000047,
 0.,-0.00000020,0.00000023,0.00000007,-0.00000021,0.00000010,-0.0000001
 2,0.00000024,0.00000003,-0.00000013,0.00000004,0.,-0.00000002,-0.00000
 013,0.00000009,-0.00000003,-0.00000045,-0.00000152,-0.00000016,0.00000
 031,0.00000015,0.00000002,0.00000024,0.00000097\\\@


 IT MATTERS NOT HOW DEEP YOU PLOW,
 BUT HOW LONG YOU STAY IN THE FURROW.
 Job cpu time:      11 days 20 hours 51 minutes  2.7 seconds.
 File lengths (MBytes):  RWF=  30721 Int=      0 D2E=      0 Chk=    107 Scr=      2
 Normal termination of Gaussian 09 at Thu Sep  1 10:00:58 2022.
